       N       E                     dE             d eps       ncg     rms          rms(c)
DAV:   1     0.619897129260E+04    0.61990E+04   -0.50372E+05 12288   0.194E+03
DAV:   2    -0.886840573551E+02   -0.62877E+04   -0.61569E+04 13056   0.440E+02
DAV:   3    -0.372144201126E+03   -0.28346E+03   -0.28215E+03 17664   0.102E+02
DAV:   4    -0.376072456002E+03   -0.39283E+01   -0.39280E+01 13312   0.122E+01
DAV:   5    -0.376176601267E+03   -0.10415E+00   -0.10414E+00 17664   0.202E+00    0.751E+01
DAV:   6    -0.334669058773E+03    0.41508E+02   -0.59049E+02 12288   0.813E+01    0.100E+02
DAV:   7    -0.329532218592E+03    0.51368E+01   -0.11238E+02 12288   0.274E+01    0.437E+01
DAV:   8    -0.329505229787E+03    0.26989E-01   -0.36069E+01 14848   0.208E+01    0.323E+01
DAV:   9    -0.331328337511E+03   -0.18231E+01   -0.10089E+02 15616   0.241E+01    0.235E+01
DAV:  10    -0.327660264000E+03    0.36681E+01   -0.21505E+01 16128   0.157E+01    0.276E+00
DAV:  11    -0.327786448349E+03   -0.12618E+00   -0.12470E+00 16640   0.182E+00    0.356E+00
DAV:  12    -0.327774466102E+03    0.11982E-01   -0.50044E-01 16128   0.182E+00    0.133E+00
DAV:  13    -0.327779962762E+03   -0.54967E-02   -0.48824E-02 14848   0.401E-01    0.908E-01
DAV:  14    -0.327790227368E+03   -0.10265E-01   -0.55756E-02 16384   0.374E-01    0.412E-01
DAV:  15    -0.327789917549E+03    0.30982E-03   -0.54354E-03 13824   0.186E-01    0.174E-01
DAV:  16    -0.327790060231E+03   -0.14268E-03   -0.42263E-04 16896   0.297E-02    0.127E-01
DAV:  17    -0.327790571421E+03   -0.51119E-03   -0.21463E-03 14848   0.581E-02    0.882E-02
DAV:  18    -0.327790636907E+03   -0.65486E-04   -0.19897E-04 14848   0.218E-02    0.505E-02
DAV:  19    -0.327790642539E+03   -0.56323E-05   -0.49131E-05 15104   0.105E-02    0.306E-02
DAV:  20    -0.327790646879E+03   -0.43403E-05   -0.16712E-05 15872   0.418E-03    0.242E-02
DAV:  21    -0.327790646721E+03    0.15882E-06   -0.37422E-05 15872   0.990E-03    0.150E-02
DAV:  22    -0.327790647273E+03   -0.55193E-06   -0.30481E-06 14336   0.413E-03    0.124E-02
DAV:  23    -0.327790647589E+03   -0.31620E-06   -0.42905E-07 17152   0.113E-03    0.737E-03
DAV:  24    -0.327790647458E+03    0.13065E-06   -0.74548E-07 17664   0.172E-03    0.181E-03
DAV:  25    -0.327790647435E+03    0.23560E-07   -0.23497E-07 15360   0.846E-04    0.117E-03
DAV:  26    -0.327790647420E+03    0.14974E-07   -0.30088E-08 13312   0.346E-04    0.543E-04
DAV:  27    -0.327790647476E+03   -0.56723E-07   -0.19435E-08 11264   0.168E-04    0.520E-04
DAV:  28    -0.327790647492E+03   -0.15381E-07   -0.20682E-09 11264   0.792E-05    0.337E-04
DAV:  29    -0.327790647487E+03    0.45693E-08    0.75950E-10  9216   0.378E-05
   1 F= -.32779065E+03 E0= -.32779065E+03  d E =0.000000E+00  mag=     0.0000
