 vasp.5.4.4.18Apr17-6-g9f103f2a35 (build Oct 30 2023 17:30:16) complex          
  
 executed on             LinuxIFC date 2024.06.30  04:40:39
 running on  256 total cores
 distrk:  each k-point on  256 cores,    1 groups
 distr:  one band on NCORES_PER_BAND=   1 cores,  256 groups


--------------------------------------------------------------------------------------------------------


 INCAR:
 POTCAR:    PAW_PBE S 06Sep2000                   
 POTCAR:     PAW_PBE Cu_pv 06Sep2000              
 POTCAR:     PAW_PBE Fe_pv 02Aug2007              

 ----------------------------------------------------------------------------- 
|                                                                             |
|           W    W    AA    RRRRR   N    N  II  N    N   GGGG   !!!           |
|           W    W   A  A   R    R  NN   N  II  NN   N  G    G  !!!           |
|           W    W  A    A  R    R  N N  N  II  N N  N  G       !!!           |
|           W WW W  AAAAAA  RRRRR   N  N N  II  N  N N  G  GGG   !            |
|           WW  WW  A    A  R   R   N   NN  II  N   NN  G    G                |
|           W    W  A    A  R    R  N    N  II  N    N   GGGG   !!!           |
|                                                                             |
|      For optimal performance we recommend to set                            |
|        NCORE= 4 - approx SQRT( number of cores)                             |
|      NCORE specifies how many cores store one orbital (NPAR=cpu/NCORE).     |
|      This setting can  greatly improve the performance of VASP for DFT.     |
|      The default,   NCORE=1            might be grossly inefficient         |
|      on modern multi-core architectures or massively parallel machines.     |
|      Do your own testing !!!!                                               |
|      Unfortunately you need to use the default for GW and RPA calculations. |
|      (for HF NCORE is supported but not extensively tested yet)             |
|                                                                             |
 ----------------------------------------------------------------------------- 

 POTCAR:    PAW_PBE S 06Sep2000                   
   SHA256 =  0fc7481fb0695f01bdc6462160264c5c84044ae9ec85a907d398b887a2bc3132 S/
   COPYR  = (c) Copyright 06Sep2000 Georg Kresse                                
   COPYR  = This file is part of the software VASP. Any use, copying, and all ot
   COPYR  = If you do not have a valid VASP license, you may not use, copy or di
   VRHFIN =S : s2p4                                                             
   LEXCH  = PE                                                                  
   EATOM  =   276.8230 eV,   20.3459 Ry                                         
                                                                                
   TITEL  = PAW_PBE S 06Sep2000                                                 
   LULTRA =        F    use ultrasoft PP ?                                      
   IUNSCR =        1    unscreen: 0-lin 1-nonlin 2-no                           
   RPACOR =    1.500    partial core radius                                     
   POMASS =   32.066; ZVAL   =    6.000    mass and valenz                      
   RCORE  =    1.900    outmost cutoff radius                                   
   RWIGS  =    2.200; RWIGS  =    1.164    wigner-seitz radius (au A)           
   ENMAX  =  258.689; ENMIN  =  194.016 eV                                      
   ICORE  =        2    local potential                                         
   LCOR   =        T    correct aug charges                                     
   LPAW   =        T    paw PP                                                  
   EAUG   =  335.092                                                            
   DEXC   =    0.000                                                            
   RMAX   =    1.942    core radius for proj-oper                               
   RAUG   =    1.300    factor for augmentation sphere                          
   RDEP   =    1.954    radius for radial grids                                 
   RDEPT  =    1.744    core radius for aug-charge                              
                                                                                
   Atomic configuration                                                         
    6 entries                                                                   
     n  l   j            E        occ.                                          
     1  0  0.50     -2405.8406   2.0000                                         
     2  0  0.50      -211.7007   2.0000                                         
     2  1  1.50      -156.4958   6.0000                                         
     3  0  0.50       -17.2562   2.0000                                         
     3  1  0.50        -7.0085   4.0000                                         
     3  2  1.50        -6.8029   0.0000                                         
   Description                                                                  
     l       E           TYP  RCUT    TYP  RCUT                                 
     0    -17.2561641     23  1.900                                             
     0    -15.8743224     23  1.900                                             
     1     -7.0085400     23  1.900                                             
     1     -2.7779785     23  1.900                                             
     2     -6.8029130     23  1.900                                             
  local pseudopotential read in
  partial core-charges read in
  partial kinetic energy density read in
  atomic valenz-charges read in
  non local Contribution for L=           0  read in
    real space projection operators read in
  non local Contribution for L=           0  read in
    real space projection operators read in
  non local Contribution for L=           1  read in
    real space projection operators read in
  non local Contribution for L=           1  read in
    real space projection operators read in
    PAW grid and wavefunctions read in
 
   number of l-projection  operators is LMAX  =           4
   number of lm-projection operators is LMMAX =           8
 
 POTCAR:     PAW_PBE Cu_pv 06Sep2000              
   SHA256 =  cb7b504e2ea725fe1f25c85a9ac77d4012ce94cd394135b722c4e25ec297f1cb Cu
   COPYR  = (c) Copyright 06Sep2000 Georg Kresse                                
   COPYR  = This file is part of the software VASP. Any use, copying, and all ot
   COPYR  = If you do not have a valid VASP license, you may not use, copy or di
   VRHFIN =Cu: d10 p1                                                           
   LEXCH  = PE                                                                  
   EATOM  =  4120.1201 eV,  302.8203 Ry                                         
                                                                                
   TITEL  = PAW_PBE Cu_pv 06Sep2000                                             
   LULTRA =        F    use ultrasoft PP ?                                      
   IUNSCR =        1    unscreen: 0-lin 1-nonlin 2-no                           
   RPACOR =    1.500    partial core radius                                     
   POMASS =   63.546; ZVAL   =   17.000    mass and valenz                      
   RCORE  =    2.000    outmost cutoff radius                                   
   RWIGS  =    2.000; RWIGS  =    1.058    wigner-seitz radius (au A)           
   ENMAX  =  368.648; ENMIN  =  276.486 eV                                      
   RCLOC  =    1.304    cutoff for local pot                                    
   LCOR   =        T    correct aug charges                                     
   LPAW   =        T    paw PP                                                  
   EAUG   =  758.233                                                            
   DEXC   =    0.000                                                            
   RMAX   =    2.046    core radius for proj-oper                               
   RAUG   =    1.300    factor for augmentation sphere                          
   RDEP   =    2.025    radius for radial grids                                 
   RDEPT  =    1.558    core radius for aug-charge                              
                                                                                
   Atomic configuration                                                         
    8 entries                                                                   
     n  l   j            E        occ.                                          
     1  0  0.50     -8850.2467   2.0000                                         
     2  0  0.50     -1062.3498   2.0000                                         
     2  1  1.50      -916.8226   6.0000                                         
     3  0  0.50      -114.6929   2.0000                                         
     3  1  1.50       -72.1325   6.0000                                         
     3  2  2.50        -5.0394  10.0000                                         
     4  0  0.50        -4.6097   1.0000                                         
     4  3  2.50        -1.3606   0.0000                                         
   Description                                                                  
     l       E           TYP  RCUT    TYP  RCUT                                 
     1    -72.1324777     23  1.700                                             
     1     -1.3605826     23  1.700                                             
     2     -5.0393776     23  2.000                                             
     2     -6.3999602     23  2.000                                             
     0     -4.6097062     23  1.800                                             
     0     14.1620818     23  1.800                                             
  local pseudopotential read in
  partial core-charges read in
  partial kinetic energy density read in
  atomic valenz-charges read in
  non local Contribution for L=           1  read in
    real space projection operators read in
  non local Contribution for L=           1  read in
    real space projection operators read in
  non local Contribution for L=           2  read in
    real space projection operators read in
  non local Contribution for L=           2  read in
    real space projection operators read in
  non local Contribution for L=           0  read in
    real space projection operators read in
  non local Contribution for L=           0  read in
    real space projection operators read in
    PAW grid and wavefunctions read in
 
   number of l-projection  operators is LMAX  =           6
   number of lm-projection operators is LMMAX =          18
 
 POTCAR:     PAW_PBE Fe_pv 02Aug2007              
   SHA256 =  5d22e414b1f82158bf2c7ecb8b97b28fd0923e48cadc1c3bf74d524558f5dd32 Fe
   COPYR  = (c) Copyright 02Aug2007 Georg Kresse                                
   COPYR  = This file is part of the software VASP. Any use, copying, and all ot
   COPYR  = If you do not have a valid VASP license, you may not use, copy or di
   VRHFIN =Fe:  3pd7s1                                                          
   LEXCH  = PE                                                                  
   EATOM  =  2457.4239 eV,  180.6156 Ry                                         
                                                                                
   TITEL  = PAW_PBE Fe_pv 02Aug2007                                             
   LULTRA =        F    use ultrasoft PP ?                                      
   IUNSCR =        1    unscreen: 0-lin 1-nonlin 2-no                           
   RPACOR =    1.750    partial core radius                                     
   POMASS =   55.847; ZVAL   =   14.000    mass and valenz                      
   RCORE  =    2.200    outmost cutoff radius                                   
   RWIGS  =    2.200; RWIGS  =    1.164    wigner-seitz radius (au A)           
   ENMAX  =  293.238; ENMIN  =  219.928 eV                                      
   ICORE  =        3    local potential                                         
   LCOR   =        T    correct aug charges                                     
   LPAW   =        T    paw PP                                                  
   EAUG   =  578.342                                                            
   DEXC   =    0.000                                                            
   RMAX   =    2.249    core radius for proj-oper                               
   RAUG   =    1.300    factor for augmentation sphere                          
   RDEP   =    2.296    radius for radial grids                                 
   RDEPT  =    1.766    core radius for aug-charge                              
                                                                                
   Atomic configuration                                                         
    8 entries                                                                   
     n  l   j            E        occ.                                          
     1  0  0.50     -6993.8440   2.0000                                         
     2  0  0.50      -814.6047   2.0000                                         
     2  1  1.50      -693.3689   6.0000                                         
     3  0  0.50       -89.4732   2.0000                                         
     3  1  1.50       -55.6373   6.0000                                         
     3  2  2.50        -3.8151   7.0000                                         
     4  0  0.50        -4.2551   1.0000                                         
     4  3  2.50        -1.3606   0.0000                                         
   Description                                                                  
     l       E           TYP  RCUT    TYP  RCUT                                 
     1    -55.6372668     23  2.000                                             
     1     -5.4423304     23  2.000                                             
     2     -3.8151096     23  2.200                                             
     2     -5.1756922     23  2.200                                             
     0     -4.2550951     23  2.200                                             
     0     27.2116520     23  2.200                                             
     3     -1.3605826     23  2.200                                             
  local pseudopotential read in
  partial core-charges read in
  partial kinetic energy density read in
  atomic valenz-charges read in
  non local Contribution for L=           1  read in
    real space projection operators read in
  non local Contribution for L=           1  read in
    real space projection operators read in
  non local Contribution for L=           2  read in
    real space projection operators read in
  non local Contribution for L=           2  read in
    real space projection operators read in
  non local Contribution for L=           0  read in
    real space projection operators read in
  non local Contribution for L=           0  read in
    real space projection operators read in
    PAW grid and wavefunctions read in
 
   number of l-projection  operators is LMAX  =           6
   number of lm-projection operators is LMMAX =          18
 

 ----------------------------------------------------------------------------- 
|                                                                             |
|  ADVICE TO THIS USER RUNNING 'VASP/VAMP'   (HEAR YOUR MASTER'S VOICE ...):  |
|                                                                             |
|      You have a (more or less) 'large supercell' and for larger cells       |
|      it might be more efficient to use real space projection opertators     |
|      So try LREAL= Auto  in the INCAR   file.                               |
|      Mind:          For very  accurate calculation you might also keep the  |
|      reciprocal projection scheme          (i.e. LREAL=.FALSE.)             |
|                                                                             |
 ----------------------------------------------------------------------------- 


 ----------------------------------------------------------------------------- 
|                                                                             |
|  ADVICE TO THIS USER RUNNING 'VASP/VAMP'   (HEAR YOUR MASTER'S VOICE ...):  |
|                                                                             |
|      You enforced a specific xc-type in the INCAR file,                     |
|      a different type was found on the POTCAR file                          |
|          I HOPE YOU KNOW, WHAT YOU ARE  DOING                               |
|                                                                             |
 ----------------------------------------------------------------------------- 

  PAW_PBE S 06Sep2000                   :
 energy of atom  1       EATOM= -276.8230
 kinetic energy error for atom=    0.0007 (will be added to EATOM!!)
   PAW_PBE Cu_pv 06Sep2000              :
 energy of atom  2       EATOM=-4120.1201
 kinetic energy error for atom=    0.0094 (will be added to EATOM!!)
   PAW_PBE Fe_pv 02Aug2007              :
 energy of atom  3       EATOM=-2457.4239
 kinetic energy error for atom=    0.0025 (will be added to EATOM!!)
 
 
 POSCAR: Fe16 Cu16 S32                           
  positions in direct lattice
  No initial velocities read in
 exchange correlation table for  LEXCH =       14
   RHO(1)=    0.500       N(1)  =     2000
   RHO(2)=  100.500       N(2)  =     4000
 


--------------------------------------------------------------------------------------------------------


 ion  position               nearest neighbor table
   1  0.126  0.121  0.126-  41 2.26  61 2.26  37 2.27  49 2.29
   2  0.626  0.121  0.126-  42 2.26  62 2.26  38 2.27  50 2.29
   3  0.126  0.621  0.126-  43 2.26  63 2.26  39 2.27  51 2.29
   4  0.626  0.621  0.126-  44 2.26  64 2.26  40 2.27  52 2.29
   5  0.374  0.371  0.124-  39 2.26  52 2.26  41 2.27  62 2.29
   6  0.874  0.371  0.124-  40 2.26  51 2.26  42 2.27  61 2.29
   7  0.374  0.871  0.124-  37 2.26  50 2.26  43 2.27  64 2.29
   8  0.874  0.871  0.124-  38 2.26  49 2.26  44 2.27  63 2.29
   9  0.125  0.371  0.875-  41 2.27  45 2.27  51 2.27  55 2.27
  10  0.625  0.371  0.875-  42 2.27  46 2.27  52 2.27  56 2.27
  11  0.125  0.871  0.875-  43 2.27  47 2.27  49 2.27  53 2.27
  12  0.625  0.871  0.875-  44 2.27  48 2.27  50 2.27  54 2.27
  13  0.375  0.123  0.875-  41 2.26  46 2.26  50 2.29  53 2.29
  14  0.875  0.123  0.875-  42 2.26  45 2.26  49 2.29  54 2.29
  15  0.375  0.623  0.875-  43 2.26  48 2.26  52 2.29  55 2.29
  16  0.875  0.623  0.875-  44 2.26  47 2.26  51 2.29  56 2.29
  17  0.124  0.121  0.624-  45 2.26  57 2.26  33 2.27  53 2.29
  18  0.624  0.121  0.624-  46 2.26  58 2.26  34 2.27  54 2.29
  19  0.124  0.621  0.624-  47 2.26  59 2.26  35 2.27  55 2.29
  20  0.624  0.621  0.624-  48 2.26  60 2.26  36 2.27  56 2.29
  21  0.376  0.371  0.626-  36 2.26  55 2.26  46 2.27  57 2.29
  22  0.876  0.371  0.626-  35 2.26  56 2.26  45 2.27  58 2.29
  23  0.376  0.871  0.626-  34 2.26  53 2.26  48 2.27  59 2.29
  24  0.876  0.871  0.626-  33 2.26  54 2.26  47 2.27  60 2.29
  25  0.375  0.121  0.375-  34 2.27  37 2.27  57 2.27  62 2.27
  26  0.875  0.121  0.375-  33 2.27  38 2.27  58 2.27  61 2.27
  27  0.375  0.621  0.375-  36 2.27  39 2.27  59 2.27  64 2.27
  28  0.875  0.621  0.375-  35 2.27  40 2.27  60 2.27  63 2.27
  29  0.125  0.373  0.375-  35 2.26  39 2.26  57 2.29  61 2.29
  30  0.625  0.373  0.375-  36 2.26  40 2.26  58 2.29  62 2.29
  31  0.125  0.873  0.375-  33 2.26  37 2.26  59 2.29  63 2.29
  32  0.625  0.873  0.375-  34 2.26  38 2.26  60 2.29  64 2.29
  33  0.998  0.004  0.500-  24 2.26  31 2.26  26 2.27  17 2.27
  34  0.498  0.004  0.500-  23 2.26  32 2.26  25 2.27  18 2.27
  35  0.998  0.504  0.500-  22 2.26  29 2.26  28 2.27  19 2.27
  36  0.498  0.504  0.500-  21 2.26  30 2.26  27 2.27  20 2.27
  37  0.252  0.004  0.250-   7 2.26  31 2.26  25 2.27   1 2.27
  38  0.752  0.004  0.250-   8 2.26  32 2.26  26 2.27   2 2.27
  39  0.252  0.504  0.250-   5 2.26  29 2.26  27 2.27   3 2.27
  40  0.752  0.504  0.250-   6 2.26  30 2.26  28 2.27   4 2.27
  41  0.248  0.254  0.000-   1 2.26  13 2.26   9 2.27   5 2.27
  42  0.748  0.254  0.000-   2 2.26  14 2.26  10 2.27   6 2.27
  43  0.248  0.754  0.000-   3 2.26  15 2.26  11 2.27   7 2.27
  44  0.748  0.754  0.000-   4 2.26  16 2.26  12 2.27   8 2.27
  45  0.002  0.254  0.750-  17 2.26  14 2.26   9 2.27  22 2.27
  46  0.502  0.254  0.750-  18 2.26  13 2.26  10 2.27  21 2.27
  47  0.002  0.754  0.750-  19 2.26  16 2.26  11 2.27  24 2.27
  48  0.502  0.754  0.750-  20 2.26  15 2.26  12 2.27  23 2.27
  49  0.999  0.004  0.000-   8 2.26  11 2.27  14 2.29   1 2.29
  50  0.499  0.004  0.000-   7 2.26  12 2.27  13 2.29   2 2.29
  51  0.999  0.504  0.000-   6 2.26   9 2.27  16 2.29   3 2.29
  52  0.499  0.504  0.000-   5 2.26  10 2.27  15 2.29   4 2.29
  53  0.251  0.004  0.750-  23 2.26  11 2.27  13 2.29  17 2.29
  54  0.751  0.004  0.750-  24 2.26  12 2.27  14 2.29  18 2.29
  55  0.251  0.504  0.750-  21 2.26   9 2.27  15 2.29  19 2.29
  56  0.751  0.504  0.750-  22 2.26  10 2.27  16 2.29  20 2.29
  57  0.249  0.254  0.500-  17 2.26  25 2.27  29 2.29  21 2.29
  58  0.749  0.254  0.500-  18 2.26  26 2.27  30 2.29  22 2.29
  59  0.249  0.754  0.500-  19 2.26  27 2.27  31 2.29  23 2.29
  60  0.749  0.754  0.500-  20 2.26  28 2.27  32 2.29  24 2.29
  61  0.001  0.254  0.250-   1 2.26  26 2.27  29 2.29   6 2.29
  62  0.501  0.254  0.250-   2 2.26  25 2.27  30 2.29   5 2.29
  63  0.001  0.754  0.250-   3 2.26  28 2.27  31 2.29   8 2.29
  64  0.501  0.754  0.250-   4 2.26  27 2.27  32 2.29   7 2.29
 
  LATTYP: Found a simple monoclinic cell.
 ALAT       =    15.3027405631
 B/A-ratio  =     0.6875396571
 C/A-ratio  =     1.5663061716
 COS(beta)  =    -0.9546704279
  
  Lattice vectors:
  
 A1 = ( -10.8712200000,   0.0000000000, -10.7698860000)
 A2 = (   0.0000000000, -10.5212410000,   0.0000000000)
 A3 = (  11.2345120000,   0.0000000000,  21.1728130000)


Analysis of symmetry for initial positions (statically):
=====================================================================
 Subroutine PRICEL returns following result:
 
  LATTYP: Found a base centered monoclinic cell.
 ALAT       =    11.3294209833
 B/A-ratio  =     0.4643326881
 C/A-ratio  =     0.9187820403
 COS(beta)  =    -0.8039690834
  
  Lattice vectors:
  
 A1 = (  -2.4453360000,  -2.6303102500,   5.1097237500)
 A2 = (  -2.4453360000,   2.6303102500,   5.1097237500)
 A3 = (  -0.3632920000,   0.0000000000, -10.4029270000)
 
   8 primitive cells build up your supercell.
 

 Routine SETGRP: Setting up the symmetry group for a 
 simple monoclinic supercell.


 Subroutine GETGRP returns: Found  2 space group operations
 (whereof  1 operations were pure point group operations)
 out of a pool of  4 trial point group operations.


The static configuration has the point symmetry C_1 .
 The point group associated with its full space group is C_2 .


Analysis of symmetry for dynamics (positions and initial velocities):
=====================================================================
 Subroutine PRICEL returns following result:
 
  LATTYP: Found a base centered monoclinic cell.
 ALAT       =    11.3294209833
 B/A-ratio  =     0.4643326881
 C/A-ratio  =     0.9187820403
 COS(beta)  =    -0.8039690834
  
  Lattice vectors:
  
 A1 = (  -2.4453360000,  -2.6303102500,   5.1097237500)
 A2 = (  -2.4453360000,   2.6303102500,   5.1097237500)
 A3 = (  -0.3632920000,   0.0000000000, -10.4029270000)
 
   8 primitive cells build up your supercell.
 

 Routine SETGRP: Setting up the symmetry group for a 
 simple monoclinic supercell.


 Subroutine GETGRP returns: Found  2 space group operations
 (whereof  1 operations were pure point group operations)
 out of a pool of  4 trial point group operations.


The dynamic configuration has the point symmetry C_1 .
 The point group associated with its full space group is C_2 .


Analysis of structural, dynamic, and magnetic symmetry:
=====================================================================
 Subroutine PRICEL returns following result:
 
  LATTYP: Found a base centered monoclinic cell.
 ALAT       =    11.3294209833
 B/A-ratio  =     0.4643326881
 C/A-ratio  =     0.9187820403
 COS(beta)  =    -0.8039690834
  
  Lattice vectors:
  
 A1 = (  -2.4453360000,  -2.6303102500,   5.1097237500)
 A2 = (  -2.4453360000,   2.6303102500,   5.1097237500)
 A3 = (  -0.3632920000,   0.0000000000, -10.4029270000)
 
   8 primitive cells build up your supercell.
 

 Routine SETGRP: Setting up the symmetry group for a 
 simple monoclinic supercell.


 Subroutine GETGRP returns: Found  2 space group operations
 (whereof  1 operations were pure point group operations)
 out of a pool of  4 trial point group operations.


The magnetic configuration has the point symmetry C_1 .
 The point group associated with its full space group is C_2 .


 Subroutine INISYM returns: Found  2 space group operations
 (whereof  1 operations are pure point group operations),
 and found     8 'primitive' translations

 
 
 KPOINTS: Automatic mesh                          

Automatic generation of k-mesh.
Space group operators:
 irot       det(A)        alpha          n_x          n_y          n_z        tau_x        tau_y        tau_z
    1     1.000000     0.000000     1.000000     0.000000     0.000000     0.000000     0.000000     0.000000
    2     1.000000   180.000000     0.000000     1.000000     0.000000    -0.250000     0.000000    -0.250000
 
 Subroutine IBZKPT returns following result:
 ===========================================
 
 Found      8 irreducible k-points:
 
 Following reciprocal coordinates:
            Coordinates               Weight
  0.000000  0.000000  0.000000      1.000000
  0.500000  0.000000 -0.000000      1.000000
  0.000000  0.500000  0.000000      1.000000
  0.500000  0.500000 -0.000000      1.000000
  0.000000  0.000000  0.500000      1.000000
  0.500000  0.000000  0.500000      1.000000
  0.000000  0.500000  0.500000      1.000000
  0.500000  0.500000  0.500000      1.000000
 
 Following cartesian coordinates:
            Coordinates               Weight
  0.000000  0.000000  0.000000      1.000000
  0.047641  0.000000 -0.001664      1.000000
  0.000000  0.047523  0.000000      1.000000
  0.047641  0.047523 -0.001664      1.000000
 -0.001681  0.000000  0.048122      1.000000
  0.045961  0.000000  0.046458      1.000000
 -0.001681  0.047523  0.048122      1.000000
  0.045961  0.047523  0.046458      1.000000
 
 TETIRR: Found     24 inequivalent tetrahedra from       48
 
 Subroutine IBZKPT_HF returns following result:
 ==============================================
 
 Found      8 k-points in 1st BZ
 the following      8 k-points will be used (e.g. in the exchange kernel)
 Following reciprocal coordinates:   # in IRBZ
  0.000000  0.000000  0.000000    0.12500000   1 t-inv F
  0.500000  0.000000 -0.000000    0.12500000   2 t-inv F
  0.000000  0.500000  0.000000    0.12500000   3 t-inv F
  0.500000  0.500000 -0.000000    0.12500000   4 t-inv F
  0.000000  0.000000  0.500000    0.12500000   5 t-inv F
  0.500000  0.000000  0.500000    0.12500000   6 t-inv F
  0.000000  0.500000  0.500000    0.12500000   7 t-inv F
  0.500000  0.500000  0.500000    0.12500000   8 t-inv F


--------------------------------------------------------------------------------------------------------




 Dimension of arrays:
   k-points           NKPTS =      8   k-points in BZ     NKDIM =      8   number of bands    NBANDS=    512
   number of dos      NEDOS =    301   number of ions     NIONS =     64
   non local maximal  LDIM  =      6   non local SUM 2l+1 LMDIM =     18
   total plane-waves  NPLWV = 829440
   max r-space proj   IRMAX =      1   max aug-charges    IRDMAX=  22945
   dimension x,y,z NGX =    96 NGY =   96 NGZ =   90
   dimension x,y,z NGXF=   192 NGYF=  192 NGZF=  180
   support grid    NGXF=   192 NGYF=  192 NGZF=  180
   ions per type =              32  16  16
   NGX,Y,Z   is equivalent  to a cutoff of  15.18, 15.17, 14.37 a.u.
   NGXF,Y,Z  is equivalent  to a cutoff of  30.36, 30.34, 28.75 a.u.

 SYSTEM =  CuFeS2                                  
 POSCAR =  Fe16 Cu16 S32                           

 Startparameter for this run:
   NWRITE =      2    write-flag & timer
   PREC   = accura    normal or accurate (medium, high low for compatibility)
   ISTART =      0    job   : 0-new  1-cont  2-samecut
   ICHARG =      1    charge: 1-file 2-atom 10-const
   ISPIN  =      2    spin polarized calculation?
   LNONCOLLINEAR =      F non collinear calculations
   LSORBIT =      F    spin-orbit coupling
   INIWAV =      1    electr: 0-lowe 1-rand  2-diag
   LASPH  =      F    aspherical Exc in radial PAW
   METAGGA=      F    non-selfconsistent MetaGGA calc.

 Electronic Relaxation 1
   ENCUT  =  700.0 eV  51.45 Ry    7.17 a.u.  22.68 22.70 22.46*2*pi/ulx,y,z
   ENINI  =  700.0     initial cutoff
   ENAUG  =  758.2 eV  augmentation charge cutoff
   NELM   =    500;   NELMIN=  2; NELMDL=  0     # of ELM steps 
   EDIFF  = 0.1E-07   stopping-criterion for ELM
   LREAL  =      F    real-space projection
   NLSPLINE    = F    spline interpolate recip. space projectors
   LCOMPAT=      F    compatible to vasp.4.4
   GGA_COMPAT  = T    GGA compatible to vasp.4.4-vasp.4.6
   LMAXPAW     = -100 max onsite density
   LMAXMIX     =    4 max onsite mixed and CHGCAR
   VOSKOWN=      0    Vosko Wilk Nusair interpolation
   ROPT   =    0.00000   0.00000   0.00000
 Ionic relaxation
   EDIFFG = -.1E-04   stopping-criterion for IOM
   NSW    =      0    number of steps for IOM
   NBLOCK =      1;   KBLOCK =      1    inner block; outer block 
   IBRION =     -1    ionic relax: 0-MD 1-quasi-New 2-CG
   NFREE  =      0    steps in history (QN), initial steepest desc. (CG)
   ISIF   =      2    stress and relaxation
   IWAVPR =     10    prediction:  0-non 1-charg 2-wave 3-comb
   ISYM   =      2    0-nonsym 1-usesym 2-fastsym
   LCORR  =      T    Harris-Foulkes like correction to forces

   POTIM  = 0.5000    time-step for ionic-motion
   TEIN   =    0.0    initial temperature
   TEBEG  =    0.0;   TEEND  =   0.0 temperature during run
   SMASS  =  -3.00    Nose mass-parameter (am)
   estimated Nose-frequenzy (Omega)   =  0.10E-29 period in steps =****** mass=  -0.253E-26a.u.
   SCALEE = 1.0000    scale energy and forces
   NPACO  =    256;   APACO  = 16.0  distance and # of slots for P.C.
   PSTRESS=    0.0 pullay stress

  Mass of Ions in am
   POMASS =  32.07 63.55 55.85
  Ionic Valenz
   ZVAL   =   6.00 17.00 14.00
  Atomic Wigner-Seitz radii
   RWIGS  =  -1.00 -1.00 -1.00
  virtual crystal weights 
   VCA    =   1.00  1.00  1.00
   NELECT =     688.0000    total number of electrons
   NUPDOWN=      -1.0000    fix difference up-down

 DOS related values:
   EMIN   =  10.00;   EMAX   =-10.00  energy-range for DOS
   EFERMI =   0.00
   ISMEAR =    -5;   SIGMA  =   0.03  broadening in eV -4-tet -1-fermi 0-gaus

 Electronic relaxation 2 (details)
   IALGO  =     38    algorithm
   LDIAG  =      T    sub-space diagonalisation (order eigenvalues)
   LSUBROT=      F    optimize rotation matrix (better conditioning)
   TURBO    =      0    0=normal 1=particle mesh
   IRESTART =      0    0=no restart 2=restart with 2 vectors
   NREBOOT  =      0    no. of reboots
   NMIN     =      0    reboot dimension
   EREF     =   0.00    reference energy to select bands
   IMIX   =      4    mixing-type and parameters
     AMIX     =   0.40;   BMIX     =  1.00
     AMIX_MAG =   1.60;   BMIX_MAG =  1.00
     AMIN     =   0.10
     WC   =   100.;   INIMIX=   1;  MIXPRE=   1;  MAXMIX= -45

 Intra band minimization:
   WEIMIN = 0.0000     energy-eigenvalue tresh-hold
   EBREAK =  0.49E-11  absolut break condition
   DEPER  =   0.30     relativ break condition  

   TIME   =   0.40     timestep for ELM

  volume/ion in A,a.u.               =      17.95       121.12
  Fermi-wavevector in a.u.,A,eV,Ry     =   1.379964  2.607754 25.909584  1.904301
  Thomas-Fermi vector in A             =   2.504885
 
 Write flags
   LWAVE        =      T    write WAVECAR
   LDOWNSAMPLE  =      F    k-point downsampling of WAVECAR
   LCHARG       =      T    write CHGCAR
   LVTOT        =      F    write LOCPOT, total local potential
   LVHAR        =      F    write LOCPOT, Hartree potential only
   LELF         =      F    write electronic localiz. function (ELF)
   LORBIT       =     11    0 simple, 1 ext, 2 COOP (PROOUT), +10 PAW based schemes


 Dipole corrections
   LMONO  =      F    monopole corrections only (constant potential shift)
   LDIPOL =      F    correct potential (dipole corrections)
   IDIPOL =      0    1-x, 2-y, 3-z, 4-all directions 
   EPSILON=  1.0000000 bulk dielectric constant

 LDA+U is selected, type is set to LDAUTYPE =  2
   angular momentum for each species LDAUL =     2    2    2
   U (eV)           for each species LDAUU =   0.0  0.1  4.7
   J (eV)           for each species LDAUJ =   0.0  0.0  0.0
 Exchange correlation treatment:
   GGA     =    PS    GGA type
   LEXCH   =    14    internal setting for exchange type
   VOSKOWN=      0    Vosko Wilk Nusair interpolation
   LHFCALC =     F    Hartree Fock is set to
   LHFONE  =     F    Hartree Fock one center treatment
   AEXX    =    0.0000 exact exchange contribution

 Linear response parameters
   LEPSILON=     F    determine dielectric tensor
   LRPA    =     F    only Hartree local field effects (RPA)
   LNABLA  =     F    use nabla operator in PAW spheres
   LVEL    =     F    velocity operator in full k-point grid
   LINTERFAST=   F  fast interpolation
   KINTER  =     0    interpolate to denser k-point grid
   CSHIFT  =0.1000    complex shift for real part using Kramers Kronig
   OMEGAMAX=  -1.0    maximum frequency
   DEG_THRESHOLD= 0.2000000E-02 threshold for treating states as degnerate
   RTIME   =   -0.100 relaxation time in fs
  (WPLASMAI=    0.000 imaginary part of plasma frequency in eV, 0.658/RTIME)
   DFIELD  = 0.0000000 0.0000000 0.0000000 field for delta impulse in time
 
 Orbital magnetization related:
   ORBITALMAG=     F  switch on orbital magnetization
   LCHIMAG   =     F  perturbation theory with respect to B field
   DQ        =  0.001000  dq finite difference perturbation B field
   LLRAUG    =     F  two centre corrections for induced B field

 PEAD related settings:
   LPEAD      =     T    switch on PEAD
   IPEAD      =     4    finite difference order for dpsi/dk
   LCALCPOL   =     T    calculate macroscopic polarization
   LCALCEPS   =     F    calculate dielectric tensor
   EFIELD_PEAD=    0.0000    0.0000    0.0000
   SKIP_EDOTP =     F
   LRPA       =     F
   SKIP_SCF   =     F


--------------------------------------------------------------------------------------------------------


 Static calculation
 charge density and potential will be updated during run
 spin polarized calculation
 Variant of blocked Davidson
 Davidson routine will perform the subspace rotation
 perform sub-space diagonalisation
    after iterative eigenvector-optimisation
 modified Broyden-mixing scheme, WC =      100.0
 initial mixing is a Kerker type mixing with AMIX =  0.4000 and BMIX =      1.0000
 Hartree-type preconditioning will be used
 using additional bands          168
 reciprocal scheme for non local part
 use partial core corrections
 calculate Harris-corrections to forces 
   (improved forces if not selfconsistent)
 use gradient corrections 
 use of overlap-Matrix (Vanderbilt PP)
 Fermi weights with tetrahedron method with Bloechl corrections


--------------------------------------------------------------------------------------------------------


  energy-cutoff  :      700.00
  volume of cell :     1148.71
      direct lattice vectors                 reciprocal lattice vectors
    10.507928000  0.000000000  0.366959000     0.095282442  0.000000000 -0.003327462
     0.000000000 10.521241000  0.000000000     0.000000000  0.095045822  0.000000000
     0.363292000  0.000000000 10.402927000    -0.003361049  0.000000000  0.096244167

  length of vectors
    10.514333539 10.521241000 10.409268526     0.095340525  0.095045822  0.096302836


 
 k-points in units of 2pi/SCALE and weight: Automatic mesh                          
   0.00000000  0.00000000  0.00000000       0.125
   0.04764122  0.00000000 -0.00166373       0.125
   0.00000000  0.04752291  0.00000000       0.125
   0.04764122  0.04752291 -0.00166373       0.125
  -0.00168052  0.00000000  0.04812208       0.125
   0.04596070  0.00000000  0.04645835       0.125
  -0.00168052  0.04752291  0.04812208       0.125
   0.04596070  0.04752291  0.04645835       0.125
 
 k-points in reciprocal lattice and weights: Automatic mesh                          
   0.00000000  0.00000000  0.00000000       0.125
   0.50000000  0.00000000 -0.00000000       0.125
   0.00000000  0.50000000  0.00000000       0.125
   0.50000000  0.50000000 -0.00000000       0.125
   0.00000000  0.00000000  0.50000000       0.125
   0.50000000  0.00000000  0.50000000       0.125
   0.00000000  0.50000000  0.50000000       0.125
   0.50000000  0.50000000  0.50000000       0.125
 
 position of ions in fractional coordinates (direct lattice) 
   0.12628500  0.12055200  0.12569000
   0.62628500  0.12055200  0.12569000
   0.12628500  0.62055200  0.12569000
   0.62628500  0.62055200  0.12569000
   0.37371500  0.37055200  0.12431000
   0.87371500  0.37055200  0.12431000
   0.37371500  0.87055200  0.12431000
   0.87371500  0.87055200  0.12431000
   0.12500000  0.37108400  0.87500000
   0.62500000  0.37108400  0.87500000
   0.12500000  0.87108400  0.87500000
   0.62500000  0.87108400  0.87500000
   0.37500000  0.12302900  0.87500000
   0.87500000  0.12302900  0.87500000
   0.37500000  0.62302800  0.87500000
   0.87500000  0.62302800  0.87500000
   0.12371500  0.12055200  0.62431000
   0.62371500  0.12055200  0.62431000
   0.12371500  0.62055200  0.62431000
   0.62371500  0.62055200  0.62431000
   0.37628500  0.37055200  0.62569000
   0.87628500  0.37055200  0.62569000
   0.37628500  0.87055200  0.62569000
   0.87628500  0.87055200  0.62569000
   0.37500000  0.12108400  0.37500000
   0.87500000  0.12108400  0.37500000
   0.37500000  0.62108400  0.37500000
   0.87500000  0.62108400  0.37500000
   0.12500000  0.37302800  0.37500000
   0.62500000  0.37302800  0.37500000
   0.12500000  0.87302800  0.37500000
   0.62500000  0.87302800  0.37500000
   0.99849800  0.00376500  0.50001000
   0.49849800  0.00376500  0.50001000
   0.99849800  0.50376500  0.50001000
   0.49849800  0.50376500  0.50001000
   0.25150200  0.00376500  0.24999000
   0.75150200  0.00376500  0.24999000
   0.25150200  0.50376500  0.24999000
   0.75150200  0.50376500  0.24999000
   0.24849800  0.25376500  0.00001000
   0.74849800  0.25376500  0.00001000
   0.24849800  0.75376500  0.00001000
   0.74849800  0.75376500  0.00001000
   0.00150200  0.25376500  0.74999000
   0.50150200  0.25376500  0.74999000
   0.00150200  0.75376500  0.74999000
   0.50150200  0.75376500  0.74999000
   0.99918200  0.00362700  0.00035100
   0.49918200  0.00362700  0.00035100
   0.99918200  0.50362700  0.00035100
   0.49918200  0.50362700  0.00035100
   0.25081800  0.00362700  0.74964900
   0.75081800  0.00362700  0.74964900
   0.25081800  0.50362700  0.74964900
   0.75081800  0.50362700  0.74964900
   0.24918200  0.25362700  0.50035100
   0.74918200  0.25362700  0.50035100
   0.24918200  0.75362700  0.50035100
   0.74918200  0.75362700  0.50035100
   0.00081800  0.25362700  0.24964900
   0.50081800  0.25362700  0.24964900
   0.00081800  0.75362700  0.24964900
   0.50081800  0.75362700  0.24964900
 
 position of ions in cartesian coordinates  (Angst):
   1.37265586  1.26835665  1.35388531
   6.62661986  1.26835665  1.53736481
   1.37265586  6.52897715  1.35388531
   6.62661986  6.52897715  1.53736481
   3.97213114  3.89866690  1.43032594
   9.22609514  3.89866690  1.61380544
   3.97213114  9.15928740  1.43032594
   9.22609514  9.15928740  1.61380544
   1.63137150  3.90426420  9.14843100
   6.88533550  3.90426420  9.33191050
   1.63137150  9.16488470  9.14843100
   6.88533550  9.16488470  9.33191050
   4.25835350  1.29441776  9.24017075
   9.51231750  1.29441776  9.42365025
   4.25835350  6.55502774  9.24017075
   9.51231750  6.55502774  9.42365025
   1.52679514  1.26835665  6.54004969
   6.78075914  1.26835665  6.72352919
   1.52679514  6.52897715  6.54004969
   6.78075914  6.52897715  6.72352919
   4.18128386  3.89866690  6.64708856
   9.43524786  3.89866690  6.83056806
   4.18128386  9.15928740  6.64708856
   9.43524786  9.15928740  6.83056806
   4.07670750  1.27395395  4.03870725
   9.33067150  1.27395395  4.22218675
   4.07670750  6.53457445  4.03870725
   9.33067150  6.53457445  4.22218675
   1.44972550  3.92471749  3.94696750
   6.70368950  3.92471749  4.13044700
   1.44972550  9.18533799  3.94696750
   6.70368950  9.18533799  4.13044700
  10.67379473  0.03961247  5.56797536
   5.41983073  0.03961247  5.38449586
  10.67379473  5.30023297  5.56797536
   5.41983073  5.30023297  5.38449586
   2.73358427  0.03961247  2.69291864
   7.98754827  0.03961247  2.87639814
   2.73358427  5.30023297  2.69291864
   7.98754827  5.30023297  2.87639814
   2.61120273  2.66992272  0.09129261
   7.86516673  2.66992272  0.27477211
   2.61120273  7.93054322  0.09129261
   7.86516673  7.93054322  0.27477211
   0.28824827  2.66992272  7.80264239
   5.54221227  2.66992272  7.98612189
   0.28824827  7.93054322  7.80264239
   5.54221227  7.93054322  7.98612189
  10.49946003  0.03816054  0.37031025
   5.24549603  0.03816054  0.18683075
  10.49946003  5.29878104  0.37031025
   5.24549603  5.29878104  0.18683075
   2.90791897  0.03816054  7.89058375
   8.16188297  0.03816054  8.07406325
   2.90791897  5.29878104  7.89058375
   8.16188297  5.29878104  8.07406325
   2.80016003  2.66847079  5.29655450
   8.05412403  2.66847079  5.48003400
   2.80016003  7.92909129  5.29655450
   8.05412403  7.92909129  5.48003400
   0.09929097  2.66847079  2.59738050
   5.35325497  2.66847079  2.78086000
   0.09929097  7.92909129  2.59738050
   5.35325497  7.92909129  2.78086000
 


--------------------------------------------------------------------------------------------------------


 k-point  1 :   0.0000 0.0000 0.0000  plane waves:   48263
 k-point  2 :   0.5000 0.0000-0.0000  plane waves:   48322
 k-point  3 :   0.0000 0.5000 0.0000  plane waves:   48338
 k-point  4 :   0.5000 0.5000-0.0000  plane waves:   48320
 k-point  5 :   0.0000 0.0000 0.5000  plane waves:   48366
 k-point  6 :   0.5000 0.0000 0.5000  plane waves:   48326
 k-point  7 :   0.0000 0.5000 0.5000  plane waves:   48292
 k-point  8 :   0.5000 0.5000 0.5000  plane waves:   48280

 maximum and minimum number of plane-waves per node :     48366    48263

 maximum number of plane-waves:     48366
 maximum index in each direction: 
   IXMAX=   22   IYMAX=   22   IZMAX=   22
   IXMIN=  -23   IYMIN=  -23   IZMIN=  -22


 serial   3D FFT for wavefunctions
 parallel 3D FFT for charge:
    minimum data exchange during FFTs selected (reduces bandwidth)


 total amount of memory used by VASP MPI-rank0   348353. kBytes
=======================================================================

   base      :      30000. kBytes
   nonl-proj :     216760. kBytes
   fftplans  :       4588. kBytes
   grid      :      69719. kBytes
   one-center:       1990. kBytes
   wavefun   :      25296. kBytes
 
     INWAV:  cpu time    0.0001: real time    0.0002
 Broyden mixing: mesh for mixing (old mesh)
   NGX = 45   NGY = 45   NGZ = 45
  (NGX  =192   NGY  =192   NGZ  =180)
  gives a total of  91125 points

 initial charge density was supplied:
 number of electron     688.0000147 magnetization      -0.0000000
 keeping initial charge density in first step


--------------------------------------------------------------------------------------------------------


 Maximum index for augmentation-charges          896 (set IRDMAX)


--------------------------------------------------------------------------------------------------------


 First call to EWALD:  gamma=   0.169
 Maximum number of real-space cells 3x 3x 3
 Maximum number of reciprocal cells 3x 3x 3

    FEWALD:  cpu time    0.0034: real time    0.0034


--------------------------------------- Iteration      1(   1)  ---------------------------------------


    POTLOK:  cpu time    0.3881: real time    0.4531
    SETDIJ:  cpu time    0.0146: real time    0.0147
     EDDAV:  cpu time   84.5467: real time   85.2464
 BZINTS: Fermi energy: 14.953957;688.000000 electrons
         Band energy:***********;  BLOECHL correction: -0.012472
       DOS:  cpu time    0.0413: real time    0.0414
    --------------------------------------------
      LOOP:  cpu time   84.9907: real time   85.7557

 eigenvalue-minimisations  : 16384
 total energy-change (2. order) : 0.6050700E+04  (-0.5161367E+05)
 number of electron     688.0000147 magnetization      -0.0000000
 augmentation part      688.0000147 magnetization      -0.0000000

 Free energy of the ion-electron system (eV)
  ---------------------------------------------------
  alpha Z        PSCENC =      2360.17385017
  Ewald energy   TEWEN  =    -62523.64516679
  -Hartree energ DENC   =    -42892.93686522
  -exchange      EXHF   =         0.00000000
  -V(xc)+E(xc)   XCENC  =      3285.51234865
  PAW double counting   =    112202.23326047  -115894.98524000
  entropy T*S    EENTRO =         0.00000000
  eigenvalues    EBANDS =     -4505.71701940
  atomic energy  EATOM  =    114020.06510763
  Solvation  Ediel_sol  =         0.00000000
  ---------------------------------------------------
  free energy    TOTEN  =      6050.70027551 eV

  energy without entropy =     6050.70027551  energy(sigma->0) =     6050.70027551


--------------------------------------------------------------------------------------------------------




--------------------------------------- Iteration      1(   2)  ---------------------------------------


     EDDAV:  cpu time  102.7863: real time  103.5595
 BZINTS: Fermi energy:  5.524174;688.000000 electrons
         Band energy:***********;  BLOECHL correction:  0.000000
       DOS:  cpu time    0.0066: real time    0.0066
    --------------------------------------------
      LOOP:  cpu time  102.7929: real time  103.5661

 eigenvalue-minimisations  : 18432
 total energy-change (2. order) :-0.6132612E+04  (-0.6022773E+04)
 number of electron     688.0000147 magnetization      -0.0000000
 augmentation part      688.0000147 magnetization      -0.0000000

 Free energy of the ion-electron system (eV)
  ---------------------------------------------------
  alpha Z        PSCENC =      2360.17385017
  Ewald energy   TEWEN  =    -62523.64516679
  -Hartree energ DENC   =    -42892.93686522
  -exchange      EXHF   =         0.00000000
  -V(xc)+E(xc)   XCENC  =      3285.51234865
  PAW double counting   =    112202.23326047  -115894.98524000
  entropy T*S    EENTRO =         0.00000000
  eigenvalues    EBANDS =    -10638.32871246
  atomic energy  EATOM  =    114020.06510763
  Solvation  Ediel_sol  =         0.00000000
  ---------------------------------------------------
  free energy    TOTEN  =       -81.91141756 eV

  energy without entropy =      -81.91141756  energy(sigma->0) =      -81.91141756


--------------------------------------------------------------------------------------------------------




--------------------------------------- Iteration      1(   3)  ---------------------------------------


     EDDAV:  cpu time  152.2332: real time  153.2900
 BZINTS: Fermi energy:  4.962587;688.000000 electrons
         Band energy:***********;  BLOECHL correction:  0.000000
       DOS:  cpu time    0.0058: real time    0.0059
    --------------------------------------------
      LOOP:  cpu time  152.2390: real time  153.2959

 eigenvalue-minimisations  : 22528
 total energy-change (2. order) :-0.2436007E+03  (-0.2427927E+03)
 number of electron     688.0000147 magnetization      -0.0000000
 augmentation part      688.0000147 magnetization      -0.0000000

 Free energy of the ion-electron system (eV)
  ---------------------------------------------------
  alpha Z        PSCENC =      2360.17385017
  Ewald energy   TEWEN  =    -62523.64516679
  -Hartree energ DENC   =    -42892.93686522
  -exchange      EXHF   =         0.00000000
  -V(xc)+E(xc)   XCENC  =      3285.51234865
  PAW double counting   =    112202.23326047  -115894.98524000
  entropy T*S    EENTRO =         0.00000000
  eigenvalues    EBANDS =    -10881.92941561
  atomic energy  EATOM  =    114020.06510763
  Solvation  Ediel_sol  =         0.00000000
  ---------------------------------------------------
  free energy    TOTEN  =      -325.51212071 eV

  energy without entropy =     -325.51212071  energy(sigma->0) =     -325.51212071


--------------------------------------------------------------------------------------------------------




--------------------------------------- Iteration      1(   4)  ---------------------------------------


     EDDAV:  cpu time  133.5686: real time  134.5054
 BZINTS: Fermi energy:  5.016456;688.000000 electrons
         Band energy:***********;  BLOECHL correction:  0.000000
       DOS:  cpu time    0.0065: real time    0.0065
    --------------------------------------------
      LOOP:  cpu time  133.5751: real time  134.5119

 eigenvalue-minimisations  : 20224
 total energy-change (2. order) :-0.3359251E+01  (-0.3359115E+01)
 number of electron     688.0000147 magnetization      -0.0000000
 augmentation part      688.0000147 magnetization      -0.0000000

 Free energy of the ion-electron system (eV)
  ---------------------------------------------------
  alpha Z        PSCENC =      2360.17385017
  Ewald energy   TEWEN  =    -62523.64516679
  -Hartree energ DENC   =    -42892.93686522
  -exchange      EXHF   =         0.00000000
  -V(xc)+E(xc)   XCENC  =      3285.51234865
  PAW double counting   =    112202.23326047  -115894.98524000
  entropy T*S    EENTRO =         0.00000000
  eigenvalues    EBANDS =    -10885.28866633
  atomic energy  EATOM  =    114020.06510763
  Solvation  Ediel_sol  =         0.00000000
  ---------------------------------------------------
  free energy    TOTEN  =      -328.87137142 eV

  energy without entropy =     -328.87137142  energy(sigma->0) =     -328.87137142


--------------------------------------------------------------------------------------------------------




--------------------------------------- Iteration      1(   5)  ---------------------------------------


     EDDAV:  cpu time  139.9751: real time  140.9570
 BZINTS: Fermi energy:  4.940250;688.000000 electrons
         Band energy:***********;  BLOECHL correction:  0.000000
       DOS:  cpu time    0.0065: real time    0.0065
    CHARGE:  cpu time    1.4057: real time    1.4158
    MIXING:  cpu time    0.0027: real time    0.0027
    --------------------------------------------
      LOOP:  cpu time  141.3900: real time  142.3820

 eigenvalue-minimisations  : 20992
 total energy-change (2. order) :-0.1035198E+00  (-0.1035194E+00)
 number of electron     688.0000135 magnetization      -0.0000000
 augmentation part      282.6209866 magnetization      -0.0000000

 Broyden mixing:
  rms(total) = 0.90168E+00    rms(broyden)= 0.90156E+00
  rms(prec ) = 0.10112E+01
  weight for this iteration     100.00

 Free energy of the ion-electron system (eV)
  ---------------------------------------------------
  alpha Z        PSCENC =      2360.17385017
  Ewald energy   TEWEN  =    -62523.64516679
  -Hartree energ DENC   =    -42892.93686522
  -exchange      EXHF   =         0.00000000
  -V(xc)+E(xc)   XCENC  =      3285.51234865
  PAW double counting   =    112202.23326047  -115894.98524000
  entropy T*S    EENTRO =         0.00000000
  eigenvalues    EBANDS =    -10885.39218616
  atomic energy  EATOM  =    114020.06510763
  Solvation  Ediel_sol  =         0.00000000
  ---------------------------------------------------
  free energy    TOTEN  =      -328.97489126 eV

  energy without entropy =     -328.97489126  energy(sigma->0) =     -328.97489126


--------------------------------------------------------------------------------------------------------




--------------------------------------- Iteration      1(   6)  ---------------------------------------


    POTLOK:  cpu time    0.1527: real time    0.1545
    SETDIJ:  cpu time    0.0134: real time    0.0135
     EDDAV:  cpu time  185.4869: real time  186.7571
 BZINTS: Fermi energy:  4.932072;688.000000 electrons
         Band energy:***********;  BLOECHL correction:  0.000000
       DOS:  cpu time    0.0065: real time    0.0065
    CHARGE:  cpu time    1.4008: real time    1.4115
    MIXING:  cpu time    0.0030: real time    0.1193
    --------------------------------------------
      LOOP:  cpu time  187.0632: real time  188.4624

 eigenvalue-minimisations  : 26368
 total energy-change (2. order) : 0.1033865E+01  (-0.1022764E+00)
 number of electron     688.0000135 magnetization      -0.0000000
 augmentation part      281.9767335 magnetization      -0.0000000

 Broyden mixing:
  rms(total) = 0.48591E+00    rms(broyden)= 0.48590E+00
  rms(prec ) = 0.54413E+00
  weight for this iteration     100.00

 eigenvalues of (default mixing * dielectric matrix)
  average eigenvalue GAMMA=   0.8914
  0.8914

 Free energy of the ion-electron system (eV)
  ---------------------------------------------------
  alpha Z        PSCENC =      2360.17385017
  Ewald energy   TEWEN  =    -62523.64516679
  -Hartree energ DENC   =    -42932.77385470
  -exchange      EXHF   =         0.00000000
  -V(xc)+E(xc)   XCENC  =      3286.78452256
  PAW double counting   =    112378.34648731  -116075.78628285
  entropy T*S    EENTRO =         0.00000000
  eigenvalues    EBANDS =    -10841.10568980
  atomic energy  EATOM  =    114020.06510763
  Solvation  Ediel_sol  =         0.00000000
  ---------------------------------------------------
  free energy    TOTEN  =      -327.94102647 eV

  energy without entropy =     -327.94102647  energy(sigma->0) =     -327.94102647


--------------------------------------------------------------------------------------------------------




--------------------------------------- Iteration      1(   7)  ---------------------------------------


    POTLOK:  cpu time    0.1543: real time    0.1553
    SETDIJ:  cpu time    0.0134: real time    0.0134
     EDDAV:  cpu time  169.2126: real time  170.3845
 BZINTS: Fermi energy:  4.912495;688.000000 electrons
         Band energy:***********;  BLOECHL correction:  0.000000
       DOS:  cpu time    0.0064: real time    0.0065
    CHARGE:  cpu time    1.4042: real time    1.4127
    MIXING:  cpu time    0.0019: real time    0.0040
    --------------------------------------------
      LOOP:  cpu time  170.7928: real time  171.9764

 eigenvalue-minimisations  : 24832
 total energy-change (2. order) : 0.2808626E+00  (-0.9939760E-01)
 number of electron     688.0000135 magnetization      -0.0000000
 augmentation part      282.4640568 magnetization      -0.0000000

 Broyden mixing:
  rms(total) = 0.31598E+00    rms(broyden)= 0.31597E+00
  rms(prec ) = 0.35378E+00
  weight for this iteration     100.00

 eigenvalues of (default mixing * dielectric matrix)
  average eigenvalue GAMMA=   1.1281
  1.6448  0.6114

 Free energy of the ion-electron system (eV)
  ---------------------------------------------------
  alpha Z        PSCENC =      2360.17385017
  Ewald energy   TEWEN  =    -62523.64516679
  -Hartree energ DENC   =    -42897.95281938
  -exchange      EXHF   =         0.00000000
  -V(xc)+E(xc)   XCENC  =      3285.89271461
  PAW double counting   =    112298.27067708  -115988.93284123
  entropy T*S    EENTRO =         0.00000000
  eigenvalues    EBANDS =    -10881.53168595
  atomic energy  EATOM  =    114020.06510763
  Solvation  Ediel_sol  =         0.00000000
  ---------------------------------------------------
  free energy    TOTEN  =      -327.66016386 eV

  energy without entropy =     -327.66016386  energy(sigma->0) =     -327.66016386


--------------------------------------------------------------------------------------------------------




--------------------------------------- Iteration      1(   8)  ---------------------------------------


    POTLOK:  cpu time    0.1544: real time    0.1554
    SETDIJ:  cpu time    0.0132: real time    0.0133
     EDDAV:  cpu time  153.5209: real time  154.5872
 BZINTS: Fermi energy:  4.940733;688.000000 electrons
         Band energy:***********;  BLOECHL correction:  0.000000
       DOS:  cpu time    0.0064: real time    0.0064
    CHARGE:  cpu time    1.4025: real time    1.4133
    MIXING:  cpu time    0.0016: real time    0.0016
    --------------------------------------------
      LOOP:  cpu time  155.0990: real time  156.1773

 eigenvalue-minimisations  : 22528
 total energy-change (2. order) : 0.2929819E-01  (-0.1053246E+00)
 number of electron     688.0000135 magnetization      -0.0000000
 augmentation part      282.3336455 magnetization      -0.0000000

 Broyden mixing:
  rms(total) = 0.28528E+00    rms(broyden)= 0.28527E+00
  rms(prec ) = 0.33652E+00
  weight for this iteration     100.00

 eigenvalues of (default mixing * dielectric matrix)
  average eigenvalue GAMMA=   0.8897
  1.7474  0.5971  0.3246

 Free energy of the ion-electron system (eV)
  ---------------------------------------------------
  alpha Z        PSCENC =      2360.17385017
  Ewald energy   TEWEN  =    -62523.64516679
  -Hartree energ DENC   =    -42921.31748371
  -exchange      EXHF   =         0.00000000
  -V(xc)+E(xc)   XCENC  =      3286.83361558
  PAW double counting   =    112288.10553893  -115981.38032080
  entropy T*S    EENTRO =         0.00000000
  eigenvalues    EBANDS =    -10856.46600669
  atomic energy  EATOM  =    114020.06510763
  Solvation  Ediel_sol  =         0.00000000
  ---------------------------------------------------
  free energy    TOTEN  =      -327.63086568 eV

  energy without entropy =     -327.63086568  energy(sigma->0) =     -327.63086568


--------------------------------------------------------------------------------------------------------




--------------------------------------- Iteration      1(   9)  ---------------------------------------


    POTLOK:  cpu time    0.1526: real time    0.1537
    SETDIJ:  cpu time    0.0134: real time    0.0135
     EDDAV:  cpu time  125.2622: real time  126.1702
 BZINTS: Fermi energy:  4.927766;688.000000 electrons
         Band energy:***********;  BLOECHL correction:  0.000000
       DOS:  cpu time    0.0064: real time    0.0065
    CHARGE:  cpu time    1.6633: real time    1.6739
    MIXING:  cpu time    0.0020: real time    0.0032
    --------------------------------------------
      LOOP:  cpu time  127.0999: real time  128.0210

 eigenvalue-minimisations  : 19968
 total energy-change (2. order) : 0.3250971E-01  (-0.3267344E-01)
 number of electron     688.0000135 magnetization       0.0000000
 augmentation part      282.2431528 magnetization       0.0000000

 Broyden mixing:
  rms(total) = 0.93074E-01    rms(broyden)= 0.93069E-01
  rms(prec ) = 0.95357E-01
  weight for this iteration     100.00

 eigenvalues of (default mixing * dielectric matrix)
  average eigenvalue GAMMA=   0.8830
  1.9468  0.7319  0.5168  0.3366

 Free energy of the ion-electron system (eV)
  ---------------------------------------------------
  alpha Z        PSCENC =      2360.17385017
  Ewald energy   TEWEN  =    -62523.64516679
  -Hartree energ DENC   =    -42918.96031879
  -exchange      EXHF   =         0.00000000
  -V(xc)+E(xc)   XCENC  =      3286.51633223
  PAW double counting   =    112281.76210394  -115975.40253183
  entropy T*S    EENTRO =         0.00000000
  eigenvalues    EBANDS =    -10858.10773253
  atomic energy  EATOM  =    114020.06510763
  Solvation  Ediel_sol  =         0.00000000
  ---------------------------------------------------
  free energy    TOTEN  =      -327.59835597 eV

  energy without entropy =     -327.59835597  energy(sigma->0) =     -327.59835597


--------------------------------------------------------------------------------------------------------




--------------------------------------- Iteration      1(  10)  ---------------------------------------


    POTLOK:  cpu time    0.1644: real time    0.1656
    SETDIJ:  cpu time    0.0169: real time    0.0170
     EDDAV:  cpu time  131.7649: real time  132.7118
 BZINTS: Fermi energy:  4.926990;688.000000 electrons
         Band energy:***********;  BLOECHL correction:  0.000000
       DOS:  cpu time    0.0064: real time    0.0064
    CHARGE:  cpu time    1.4031: real time    1.4138
    MIXING:  cpu time    0.0017: real time    0.0017
    --------------------------------------------
      LOOP:  cpu time  133.3574: real time  134.3162

 eigenvalue-minimisations  : 19968
 total energy-change (2. order) :-0.1370133E-02  (-0.1232303E-02)
 number of electron     688.0000135 magnetization       0.0000000
 augmentation part      282.2083633 magnetization       0.0000000

 Broyden mixing:
  rms(total) = 0.54515E-01    rms(broyden)= 0.54514E-01
  rms(prec ) = 0.56625E-01
  weight for this iteration     100.00

 eigenvalues of (default mixing * dielectric matrix)
  average eigenvalue GAMMA=   0.9720
  1.7642  1.5525  0.6742  0.5303  0.3387

 Free energy of the ion-electron system (eV)
  ---------------------------------------------------
  alpha Z        PSCENC =      2360.17385017
  Ewald energy   TEWEN  =    -62523.64516679
  -Hartree energ DENC   =    -42920.13634920
  -exchange      EXHF   =         0.00000000
  -V(xc)+E(xc)   XCENC  =      3286.52775924
  PAW double counting   =    112272.46131862  -115965.98012865
  entropy T*S    EENTRO =         0.00000000
  eigenvalues    EBANDS =    -10857.06611711
  atomic energy  EATOM  =    114020.06510763
  Solvation  Ediel_sol  =         0.00000000
  ---------------------------------------------------
  free energy    TOTEN  =      -327.59972610 eV

  energy without entropy =     -327.59972610  energy(sigma->0) =     -327.59972610


--------------------------------------------------------------------------------------------------------




--------------------------------------- Iteration      1(  11)  ---------------------------------------


    POTLOK:  cpu time    0.1537: real time    0.1546
    SETDIJ:  cpu time    0.0132: real time    0.0133
     EDDAV:  cpu time  135.3026: real time  136.2679
 BZINTS: Fermi energy:  4.925899;688.000000 electrons
         Band energy:***********;  BLOECHL correction:  0.000000
       DOS:  cpu time    0.0065: real time    0.0065
    CHARGE:  cpu time    1.4025: real time    1.4128
    MIXING:  cpu time    0.0016: real time    0.0016
    --------------------------------------------
      LOOP:  cpu time  136.8801: real time  137.8567

 eigenvalue-minimisations  : 20992
 total energy-change (2. order) :-0.1090754E-02  (-0.5202578E-03)
 number of electron     688.0000135 magnetization       0.0000000
 augmentation part      282.2436524 magnetization       0.0000000

 Broyden mixing:
  rms(total) = 0.25357E-01    rms(broyden)= 0.25356E-01
  rms(prec ) = 0.25853E-01
  weight for this iteration     100.00

 eigenvalues of (default mixing * dielectric matrix)
  average eigenvalue GAMMA=   1.1351
  2.1694  2.1694  0.8996  0.6508  0.5863  0.3352

 Free energy of the ion-electron system (eV)
  ---------------------------------------------------
  alpha Z        PSCENC =      2360.17385017
  Ewald energy   TEWEN  =    -62523.64516679
  -Hartree energ DENC   =    -42918.24635619
  -exchange      EXHF   =         0.00000000
  -V(xc)+E(xc)   XCENC  =      3286.48019103
  PAW double counting   =    112255.28061394  -115948.35675449
  entropy T*S    EENTRO =         0.00000000
  eigenvalues    EBANDS =    -10859.35230215
  atomic energy  EATOM  =    114020.06510763
  Solvation  Ediel_sol  =         0.00000000
  ---------------------------------------------------
  free energy    TOTEN  =      -327.60081685 eV

  energy without entropy =     -327.60081685  energy(sigma->0) =     -327.60081685


--------------------------------------------------------------------------------------------------------




--------------------------------------- Iteration      1(  12)  ---------------------------------------


    POTLOK:  cpu time    0.1520: real time    0.1530
    SETDIJ:  cpu time    0.0133: real time    0.0133
     EDDAV:  cpu time  151.2291: real time  152.2837
 BZINTS: Fermi energy:  4.926276;688.000000 electrons
         Band energy:***********;  BLOECHL correction:  0.000000
       DOS:  cpu time    0.0064: real time    0.0065
    CHARGE:  cpu time    1.4023: real time    1.4126
    MIXING:  cpu time    0.0017: real time    0.0017
    --------------------------------------------
      LOOP:  cpu time  152.8047: real time  153.8708

 eigenvalue-minimisations  : 22016
 total energy-change (2. order) :-0.8268855E-03  (-0.2689362E-03)
 number of electron     688.0000135 magnetization       0.0000000
 augmentation part      282.2278474 magnetization       0.0000000

 Broyden mixing:
  rms(total) = 0.10002E-01    rms(broyden)= 0.10002E-01
  rms(prec ) = 0.10596E-01
  weight for this iteration     100.00

 eigenvalues of (default mixing * dielectric matrix)
  average eigenvalue GAMMA=   1.1079
  2.2381  2.2381  0.9916  0.3348  0.7078  0.6226  0.6226

 Free energy of the ion-electron system (eV)
  ---------------------------------------------------
  alpha Z        PSCENC =      2360.17385017
  Ewald energy   TEWEN  =    -62523.64516679
  -Hartree energ DENC   =    -42919.38098391
  -exchange      EXHF   =         0.00000000
  -V(xc)+E(xc)   XCENC  =      3286.50788167
  PAW double counting   =    112241.13934677  -115934.40308120
  entropy T*S    EENTRO =         0.00000000
  eigenvalues    EBANDS =    -10858.05859808
  atomic energy  EATOM  =    114020.06510763
  Solvation  Ediel_sol  =         0.00000000
  ---------------------------------------------------
  free energy    TOTEN  =      -327.60164374 eV

  energy without entropy =     -327.60164374  energy(sigma->0) =     -327.60164374


--------------------------------------------------------------------------------------------------------




--------------------------------------- Iteration      1(  13)  ---------------------------------------


    POTLOK:  cpu time    0.1527: real time    0.1539
    SETDIJ:  cpu time    0.0135: real time    0.0135
     EDDAV:  cpu time  137.3204: real time  138.2914
 BZINTS: Fermi energy:  4.925772;688.000000 electrons
         Band energy:***********;  BLOECHL correction:  0.000000
       DOS:  cpu time    0.0064: real time    0.0065
    CHARGE:  cpu time    1.4035: real time    1.4122
    MIXING:  cpu time    0.0018: real time    0.0018
    --------------------------------------------
      LOOP:  cpu time  138.8982: real time  139.8793

 eigenvalue-minimisations  : 20736
 total energy-change (2. order) :-0.1083241E-03  (-0.2974354E-04)
 number of electron     688.0000135 magnetization       0.0000000
 augmentation part      282.2347450 magnetization       0.0000000

 Broyden mixing:
  rms(total) = 0.59576E-02    rms(broyden)= 0.59575E-02
  rms(prec ) = 0.62818E-02
  weight for this iteration     100.00

 eigenvalues of (default mixing * dielectric matrix)
  average eigenvalue GAMMA=   1.1102
  2.2593  2.2593  1.0741  1.0741  0.3347  0.6045  0.6045  0.6713

 Free energy of the ion-electron system (eV)
  ---------------------------------------------------
  alpha Z        PSCENC =      2360.17385017
  Ewald energy   TEWEN  =    -62523.64516679
  -Hartree energ DENC   =    -42918.84079485
  -exchange      EXHF   =         0.00000000
  -V(xc)+E(xc)   XCENC  =      3286.49478638
  PAW double counting   =    112237.71774726  -115930.88450378
  entropy T*S    EENTRO =         0.00000000
  eigenvalues    EBANDS =    -10858.68277807
  atomic energy  EATOM  =    114020.06510763
  Solvation  Ediel_sol  =         0.00000000
  ---------------------------------------------------
  free energy    TOTEN  =      -327.60175206 eV

  energy without entropy =     -327.60175206  energy(sigma->0) =     -327.60175206


--------------------------------------------------------------------------------------------------------




--------------------------------------- Iteration      1(  14)  ---------------------------------------


    POTLOK:  cpu time    0.1543: real time    0.1553
    SETDIJ:  cpu time    0.0132: real time    0.0133
     EDDAV:  cpu time  164.6963: real time  165.8204
 BZINTS: Fermi energy:  4.925737;688.000000 electrons
         Band energy:***********;  BLOECHL correction:  0.000000
       DOS:  cpu time    0.0064: real time    0.0064
    CHARGE:  cpu time    1.4015: real time    1.4121
    MIXING:  cpu time    0.0018: real time    0.0018
    --------------------------------------------
      LOOP:  cpu time  166.2736: real time  167.4094

 eigenvalue-minimisations  : 23040
 total energy-change (2. order) :-0.7817837E-04  (-0.2097189E-04)
 number of electron     688.0000135 magnetization       0.0000000
 augmentation part      282.2317856 magnetization       0.0000000

 Broyden mixing:
  rms(total) = 0.33328E-02    rms(broyden)= 0.33326E-02
  rms(prec ) = 0.35252E-02
  weight for this iteration     100.00

 eigenvalues of (default mixing * dielectric matrix)
  average eigenvalue GAMMA=   1.2050
  2.4546  2.4546  1.5116  1.5116  0.3348  0.7130  0.6786  0.5930  0.5930

 Free energy of the ion-electron system (eV)
  ---------------------------------------------------
  alpha Z        PSCENC =      2360.17385017
  Ewald energy   TEWEN  =    -62523.64516679
  -Hartree energ DENC   =    -42918.99318492
  -exchange      EXHF   =         0.00000000
  -V(xc)+E(xc)   XCENC  =      3286.49908690
  PAW double counting   =    112235.44997430  -115928.66824133
  entropy T*S    EENTRO =         0.00000000
  eigenvalues    EBANDS =    -10858.48325620
  atomic energy  EATOM  =    114020.06510763
  Solvation  Ediel_sol  =         0.00000000
  ---------------------------------------------------
  free energy    TOTEN  =      -327.60183024 eV

  energy without entropy =     -327.60183024  energy(sigma->0) =     -327.60183024


--------------------------------------------------------------------------------------------------------




--------------------------------------- Iteration      1(  15)  ---------------------------------------


    POTLOK:  cpu time    0.1534: real time    0.1544
    SETDIJ:  cpu time    0.0132: real time    0.0132
     EDDAV:  cpu time  117.5994: real time  118.4484
 BZINTS: Fermi energy:  4.925734;688.000000 electrons
         Band energy:***********;  BLOECHL correction:  0.000000
       DOS:  cpu time    0.0064: real time    0.0064
    CHARGE:  cpu time    1.6372: real time    1.6480
    MIXING:  cpu time    0.0023: real time    0.0023
    --------------------------------------------
      LOOP:  cpu time  119.4118: real time  120.2728

 eigenvalue-minimisations  : 18944
 total energy-change (2. order) :-0.3893620E-04  (-0.1192428E-04)
 number of electron     688.0000135 magnetization       0.0000000
 augmentation part      282.2321974 magnetization       0.0000000

 Broyden mixing:
  rms(total) = 0.15534E-02    rms(broyden)= 0.15532E-02
  rms(prec ) = 0.16626E-02
  weight for this iteration     100.00

 eigenvalues of (default mixing * dielectric matrix)
  average eigenvalue GAMMA=   1.2079
  2.8011  2.2998  1.8692  1.1203  1.1203  0.3348  0.5980  0.5980  0.7053  0.6319

 Free energy of the ion-electron system (eV)
  ---------------------------------------------------
  alpha Z        PSCENC =      2360.17385017
  Ewald energy   TEWEN  =    -62523.64516679
  -Hartree energ DENC   =    -42918.97848287
  -exchange      EXHF   =         0.00000000
  -V(xc)+E(xc)   XCENC  =      3286.49964666
  PAW double counting   =    112234.07218369  -115927.29753811
  entropy T*S    EENTRO =         0.00000000
  eigenvalues    EBANDS =    -10858.49146956
  atomic energy  EATOM  =    114020.06510763
  Solvation  Ediel_sol  =         0.00000000
  ---------------------------------------------------
  free energy    TOTEN  =      -327.60186918 eV

  energy without entropy =     -327.60186918  energy(sigma->0) =     -327.60186918


--------------------------------------------------------------------------------------------------------




--------------------------------------- Iteration      1(  16)  ---------------------------------------


    POTLOK:  cpu time    0.1682: real time    0.1692
    SETDIJ:  cpu time    0.0148: real time    0.0149
     EDDAV:  cpu time  156.9866: real time  158.0625
 BZINTS: Fermi energy:  4.925708;688.000000 electrons
         Band energy:***********;  BLOECHL correction:  0.000000
       DOS:  cpu time    0.0064: real time    0.0065
    CHARGE:  cpu time    1.5747: real time    1.5857
    MIXING:  cpu time    0.0021: real time    0.0162
    --------------------------------------------
      LOOP:  cpu time  158.7528: real time  159.8550

 eigenvalue-minimisations  : 22016
 total energy-change (2. order) :-0.1027803E-04  (-0.2459766E-05)
 number of electron     688.0000135 magnetization       0.0000000
 augmentation part      282.2331983 magnetization       0.0000000

 Broyden mixing:
  rms(total) = 0.11333E-02    rms(broyden)= 0.11332E-02
  rms(prec ) = 0.11954E-02
  weight for this iteration     100.00

 eigenvalues of (default mixing * dielectric matrix)
  average eigenvalue GAMMA=   1.2854
  3.1200  2.1795  2.1795  1.4483  1.4483  0.3348  0.9070  0.5975  0.5975  0.7046
  0.6220

 Free energy of the ion-electron system (eV)
  ---------------------------------------------------
  alpha Z        PSCENC =      2360.17385017
  Ewald energy   TEWEN  =    -62523.64516679
  -Hartree energ DENC   =    -42918.93738180
  -exchange      EXHF   =         0.00000000
  -V(xc)+E(xc)   XCENC  =      3286.49935649
  PAW double counting   =    112233.71971419  -115926.93691739
  entropy T*S    EENTRO =         0.00000000
  eigenvalues    EBANDS =    -10858.54044196
  atomic energy  EATOM  =    114020.06510763
  Solvation  Ediel_sol  =         0.00000000
  ---------------------------------------------------
  free energy    TOTEN  =      -327.60187946 eV

  energy without entropy =     -327.60187946  energy(sigma->0) =     -327.60187946


--------------------------------------------------------------------------------------------------------




--------------------------------------- Iteration      1(  17)  ---------------------------------------


    POTLOK:  cpu time    0.1536: real time    0.1545
    SETDIJ:  cpu time    0.0132: real time    0.0132
     EDDAV:  cpu time  125.4620: real time  126.3649
 BZINTS: Fermi energy:  4.925693;688.000000 electrons
         Band energy:***********;  BLOECHL correction:  0.000000
       DOS:  cpu time    0.0065: real time    0.0065
    CHARGE:  cpu time    1.4031: real time    1.4135
    MIXING:  cpu time    0.0021: real time    0.0021
    --------------------------------------------
      LOOP:  cpu time  127.0404: real time  127.9547

 eigenvalue-minimisations  : 19968
 total energy-change (2. order) :-0.7604467E-05  (-0.4084069E-05)
 number of electron     688.0000135 magnetization       0.0000000
 augmentation part      282.2330302 magnetization       0.0000000

 Broyden mixing:
  rms(total) = 0.50890E-03    rms(broyden)= 0.50866E-03
  rms(prec ) = 0.54669E-03
  weight for this iteration     100.00

 eigenvalues of (default mixing * dielectric matrix)
  average eigenvalue GAMMA=   1.3685
  4.0108  2.3584  2.3584  1.5919  1.5919  0.9629  0.3348  0.5998  0.5998  0.7174
  0.6736  0.6229

 Free energy of the ion-electron system (eV)
  ---------------------------------------------------
  alpha Z        PSCENC =      2360.17385017
  Ewald energy   TEWEN  =    -62523.64516679
  -Hartree energ DENC   =    -42918.94665024
  -exchange      EXHF   =         0.00000000
  -V(xc)+E(xc)   XCENC  =      3286.49946565
  PAW double counting   =    112233.93104431  -115927.15331944
  entropy T*S    EENTRO =         0.00000000
  eigenvalues    EBANDS =    -10858.52621834
  atomic energy  EATOM  =    114020.06510763
  Solvation  Ediel_sol  =         0.00000000
  ---------------------------------------------------
  free energy    TOTEN  =      -327.60188706 eV

  energy without entropy =     -327.60188706  energy(sigma->0) =     -327.60188706


--------------------------------------------------------------------------------------------------------




--------------------------------------- Iteration      1(  18)  ---------------------------------------


    POTLOK:  cpu time    0.1533: real time    0.1543
    SETDIJ:  cpu time    0.0132: real time    0.0133
     EDDAV:  cpu time  154.4939: real time  155.5616
 BZINTS: Fermi energy:  4.925674;688.000000 electrons
         Band energy:***********;  BLOECHL correction:  0.000000
       DOS:  cpu time    0.0065: real time    0.0065
    CHARGE:  cpu time    1.4031: real time    1.4136
    MIXING:  cpu time    0.0022: real time    0.0022
    --------------------------------------------
      LOOP:  cpu time  156.0722: real time  157.1514

 eigenvalue-minimisations  : 22016
 total energy-change (2. order) :-0.1224893E-05  (-0.7952699E-06)
 number of electron     688.0000135 magnetization       0.0000000
 augmentation part      282.2328786 magnetization       0.0000000

 Broyden mixing:
  rms(total) = 0.35453E-03    rms(broyden)= 0.35444E-03
  rms(prec ) = 0.36759E-03
  weight for this iteration     100.00

 eigenvalues of (default mixing * dielectric matrix)
  average eigenvalue GAMMA=   1.3389
  4.2092  2.4035  2.4035  1.6006  1.4035  0.3348  0.9351  0.9351  0.7230  0.6015
  0.6015  0.6270  0.6270

 Free energy of the ion-electron system (eV)
  ---------------------------------------------------
  alpha Z        PSCENC =      2360.17385017
  Ewald energy   TEWEN  =    -62523.64516679
  -Hartree energ DENC   =    -42918.93937128
  -exchange      EXHF   =         0.00000000
  -V(xc)+E(xc)   XCENC  =      3286.49901020
  PAW double counting   =    112234.10959918  -115927.32921223
  entropy T*S    EENTRO =         0.00000000
  eigenvalues    EBANDS =    -10858.53570515
  atomic energy  EATOM  =    114020.06510763
  Solvation  Ediel_sol  =         0.00000000
  ---------------------------------------------------
  free energy    TOTEN  =      -327.60188828 eV

  energy without entropy =     -327.60188828  energy(sigma->0) =     -327.60188828


--------------------------------------------------------------------------------------------------------




--------------------------------------- Iteration      1(  19)  ---------------------------------------


    POTLOK:  cpu time    0.1526: real time    0.1537
    SETDIJ:  cpu time    0.0133: real time    0.0134
     EDDAV:  cpu time  107.2720: real time  108.0686
 BZINTS: Fermi energy:  4.925672;688.000000 electrons
         Band energy:***********;  BLOECHL correction:  0.000000
       DOS:  cpu time    0.0065: real time    0.0065
    CHARGE:  cpu time    1.4022: real time    1.4126
    MIXING:  cpu time    0.0021: real time    0.0021
    --------------------------------------------
      LOOP:  cpu time  108.8488: real time  109.6570

 eigenvalue-minimisations  : 18176
 total energy-change (2. order) :-0.1194276E-06  (-0.4628987E-07)
 number of electron     688.0000135 magnetization       0.0000000
 augmentation part      282.2329683 magnetization       0.0000000

 Broyden mixing:
[...]
   -.415E+02 0.247E+02 -.198E+01   0.423E+02 -.249E+02 0.200E+01   -.836E+00 0.162E+00 -.242E-01   0.223E-04 0.513E-06 -.102E-05
   -.415E+02 0.247E+02 -.198E+01   0.423E+02 -.249E+02 0.200E+01   -.836E+00 0.162E+00 -.242E-01   0.223E-04 0.513E-06 -.101E-05
   -.415E+02 0.247E+02 -.198E+01   0.423E+02 -.249E+02 0.200E+01   -.836E+00 0.162E+00 -.242E-01   0.223E-04 -.281E-04 -.982E-06
   -.415E+02 0.247E+02 -.198E+01   0.423E+02 -.249E+02 0.200E+01   -.836E+00 0.162E+00 -.242E-01   0.223E-04 -.281E-04 -.976E-06
   0.415E+02 0.247E+02 0.198E+01   -.423E+02 -.249E+02 -.200E+01   0.836E+00 0.162E+00 0.242E-01   -.223E-04 -.135E-04 0.218E-05
   0.415E+02 0.247E+02 0.198E+01   -.423E+02 -.249E+02 -.200E+01   0.836E+00 0.162E+00 0.242E-01   -.223E-04 -.135E-04 0.218E-05
   0.415E+02 0.247E+02 0.198E+01   -.423E+02 -.249E+02 -.200E+01   0.836E+00 0.162E+00 0.242E-01   -.222E-04 -.140E-04 -.186E-06
   0.415E+02 0.247E+02 0.198E+01   -.423E+02 -.249E+02 -.200E+01   0.836E+00 0.162E+00 0.242E-01   -.222E-04 -.140E-04 -.186E-06
   -.275E-07 -.241E+02 -.236E-06   0.284E-13 0.248E+02 -.178E-13   0.163E-23 -.712E+00 0.724E-24   -.104E-08 0.259E-04 -.357E-08
   -.275E-07 -.241E+02 -.236E-06   -.142E-13 0.248E+02 -.400E-13   -.129E-23 -.712E+00 -.414E-24   0.103E-08 0.259E-04 0.357E-08
   -.275E-07 -.241E+02 -.236E-06   0.284E-13 0.248E+02 -.426E-13   -.565E-24 -.712E+00 -.134E-23   -.104E-08 -.232E-06 -.357E-08
   -.275E-07 -.241E+02 -.236E-06   0.284E-13 0.248E+02 -.639E-13   0.879E-24 -.712E+00 0.124E-23   0.103E-08 -.233E-06 0.358E-08
   0.226E-07 0.606E+02 0.152E-06   0.533E-13 -.616E+02 -.127E-12   0.189E-23 0.100E+01 -.517E-24   0.281E-07 -.392E-04 -.972E-09
   0.226E-07 0.606E+02 0.152E-06   0.533E-13 -.616E+02 -.131E-12   -.711E-24 0.100E+01 0.620E-24   -.282E-07 -.392E-04 0.971E-09
   0.226E-07 0.606E+02 0.152E-06   0.853E-13 -.616E+02 -.110E-12   -.124E-23 0.100E+01 0.310E-24   0.281E-07 -.392E-04 -.972E-09
   0.226E-07 0.606E+02 0.152E-06   0.853E-13 -.616E+02 -.114E-12   0.924E-24 0.100E+01 -.207E-24   -.282E-07 -.392E-04 0.971E-09
   0.462E+01 -.229E+02 0.158E+01   -.456E+01 0.220E+02 -.161E+01   -.534E-01 0.924E+00 0.291E-01   0.315E-05 0.218E-04 0.302E-05
   0.462E+01 -.229E+02 0.158E+01   -.456E+01 0.220E+02 -.161E+01   -.534E-01 0.924E+00 0.291E-01   0.304E-05 0.218E-04 0.302E-05
   0.462E+01 -.229E+02 0.158E+01   -.456E+01 0.220E+02 -.161E+01   -.534E-01 0.924E+00 0.291E-01   0.305E-05 -.375E-04 0.689E-05
   0.462E+01 -.229E+02 0.158E+01   -.456E+01 0.220E+02 -.161E+01   -.534E-01 0.924E+00 0.291E-01   0.294E-05 -.375E-04 0.689E-05
   -.462E+01 -.229E+02 -.158E+01   0.456E+01 0.220E+02 0.161E+01   0.534E-01 0.924E+00 -.291E-01   -.303E-05 0.218E-04 -.302E-05
   -.462E+01 -.229E+02 -.158E+01   0.456E+01 0.220E+02 0.161E+01   0.534E-01 0.924E+00 -.291E-01   -.316E-05 0.218E-04 -.301E-05
   -.462E+01 -.229E+02 -.158E+01   0.456E+01 0.220E+02 0.161E+01   0.534E-01 0.924E+00 -.291E-01   -.293E-05 -.375E-04 -.690E-05
   -.462E+01 -.229E+02 -.158E+01   0.456E+01 0.220E+02 0.161E+01   0.534E-01 0.924E+00 -.291E-01   -.306E-05 -.375E-04 -.689E-05
   0.462E+01 -.229E+02 0.158E+01   -.456E+01 0.220E+02 -.161E+01   -.534E-01 0.924E+00 0.291E-01   0.287E-05 0.235E-04 0.321E-05
   0.462E+01 -.229E+02 0.158E+01   -.456E+01 0.220E+02 -.161E+01   -.534E-01 0.924E+00 0.291E-01   0.272E-05 0.235E-04 0.319E-05
   0.462E+01 -.229E+02 0.158E+01   -.456E+01 0.220E+02 -.161E+01   -.534E-01 0.924E+00 0.291E-01   0.315E-05 -.391E-04 0.695E-05
   0.462E+01 -.229E+02 0.158E+01   -.456E+01 0.220E+02 -.161E+01   -.534E-01 0.924E+00 0.291E-01   0.301E-05 -.391E-04 0.693E-05
   -.462E+01 -.229E+02 -.158E+01   0.456E+01 0.220E+02 0.161E+01   0.534E-01 0.924E+00 -.291E-01   -.274E-05 0.235E-04 -.321E-05
   -.462E+01 -.229E+02 -.158E+01   0.456E+01 0.220E+02 0.161E+01   0.534E-01 0.924E+00 -.291E-01   -.285E-05 0.235E-04 -.319E-05
   -.462E+01 -.229E+02 -.158E+01   0.456E+01 0.220E+02 0.161E+01   0.534E-01 0.924E+00 -.291E-01   -.303E-05 -.391E-04 -.695E-05
   -.462E+01 -.229E+02 -.158E+01   0.456E+01 0.220E+02 0.161E+01   0.534E-01 0.924E+00 -.291E-01   -.313E-05 -.391E-04 -.693E-05
   -.610E+01 -.225E+02 0.202E+01   0.598E+01 0.213E+02 -.207E+01   0.117E+00 0.121E+01 0.459E-01   0.692E-05 0.167E-04 0.420E-05
   -.610E+01 -.225E+02 0.202E+01   0.598E+01 0.213E+02 -.207E+01   0.117E+00 0.121E+01 0.459E-01   0.682E-05 0.167E-04 0.421E-05
   -.610E+01 -.225E+02 0.202E+01   0.598E+01 0.213E+02 -.207E+01   0.117E+00 0.121E+01 0.459E-01   0.733E-05 -.378E-04 0.140E-05
   -.610E+01 -.225E+02 0.202E+01   0.598E+01 0.213E+02 -.207E+01   0.117E+00 0.121E+01 0.459E-01   0.723E-05 -.378E-04 0.141E-05
   0.610E+01 -.225E+02 -.202E+01   -.598E+01 0.213E+02 0.207E+01   -.117E+00 0.121E+01 -.459E-01   -.683E-05 0.167E-04 -.421E-05
   0.610E+01 -.225E+02 -.202E+01   -.598E+01 0.213E+02 0.207E+01   -.117E+00 0.121E+01 -.459E-01   -.692E-05 0.167E-04 -.421E-05
   0.610E+01 -.225E+02 -.202E+01   -.598E+01 0.213E+02 0.207E+01   -.117E+00 0.121E+01 -.459E-01   -.723E-05 -.378E-04 -.140E-05
   0.610E+01 -.225E+02 -.202E+01   -.598E+01 0.213E+02 0.207E+01   -.117E+00 0.121E+01 -.459E-01   -.733E-05 -.378E-04 -.141E-05
   -.610E+01 -.225E+02 0.202E+01   0.598E+01 0.213E+02 -.207E+01   0.117E+00 0.121E+01 0.459E-01   0.712E-05 0.119E-04 0.457E-05
   -.610E+01 -.225E+02 0.202E+01   0.598E+01 0.213E+02 -.207E+01   0.117E+00 0.121E+01 0.459E-01   0.704E-05 0.119E-04 0.459E-05
   -.610E+01 -.225E+02 0.202E+01   0.598E+01 0.213E+02 -.207E+01   0.117E+00 0.121E+01 0.459E-01   0.726E-05 -.330E-04 0.121E-05
   -.610E+01 -.225E+02 0.202E+01   0.598E+01 0.213E+02 -.207E+01   0.117E+00 0.121E+01 0.459E-01   0.718E-05 -.330E-04 0.123E-05
   0.610E+01 -.225E+02 -.202E+01   -.598E+01 0.213E+02 0.207E+01   -.117E+00 0.121E+01 -.459E-01   -.703E-05 0.119E-04 -.457E-05
   0.610E+01 -.225E+02 -.202E+01   -.598E+01 0.213E+02 0.207E+01   -.117E+00 0.121E+01 -.459E-01   -.713E-05 0.119E-04 -.458E-05
   0.610E+01 -.225E+02 -.202E+01   -.598E+01 0.213E+02 0.207E+01   -.117E+00 0.121E+01 -.459E-01   -.716E-05 -.330E-04 -.121E-05
   0.610E+01 -.225E+02 -.202E+01   -.598E+01 0.213E+02 0.207E+01   -.117E+00 0.121E+01 -.459E-01   -.727E-05 -.330E-04 -.122E-05
 -----------------------------------------------------------------------------------------------
   -.536E-05 -.391E+02 -.327E-03   -.381E-12 0.419E-12 -.995E-13   -.944E-15 0.391E+02 -.416E-16   -.319E-10 -.725E-03 -.477E-10
 
 
 POSITION                                       TOTAL-FORCE (eV/Angst)
 -----------------------------------------------------------------------------------
      1.37266      1.26836      1.35389        -0.000024     -0.003112      0.000400
      6.62662      1.26836      1.53736        -0.000024     -0.003112      0.000400
      1.37266      6.52898      1.35389        -0.000024     -0.003112      0.000400
      6.62662      6.52898      1.53736        -0.000024     -0.003112      0.000400
      3.97213      3.89867      1.43033         0.000024     -0.003112     -0.000400
      9.22610      3.89867      1.61381         0.000024     -0.003112     -0.000400
      3.97213      9.15929      1.43033         0.000024     -0.003112     -0.000400
      9.22610      9.15929      1.61381         0.000024     -0.003112     -0.000400
      1.63137      3.90426      9.14843        -0.000000     -0.003088     -0.000000
      6.88534      3.90426      9.33191        -0.000000     -0.003088     -0.000000
      1.63137      9.16488      9.14843        -0.000000     -0.003088     -0.000000
      6.88534      9.16488      9.33191        -0.000000     -0.003088     -0.000000
      4.25835      1.29442      9.24017        -0.000000     -0.000980     -0.000000
      9.51232      1.29442      9.42365        -0.000000     -0.000980     -0.000000
      4.25835      6.55503      9.24017        -0.000000     -0.000980     -0.000000
      9.51232      6.55503      9.42365        -0.000000     -0.000980     -0.000000
      1.52680      1.26836      6.54005         0.000024     -0.003112     -0.000400
      6.78076      1.26836      6.72353         0.000024     -0.003112     -0.000400
      1.52680      6.52898      6.54005         0.000024     -0.003112     -0.000400
      6.78076      6.52898      6.72353         0.000024     -0.003112     -0.000400
      4.18128      3.89867      6.64709        -0.000024     -0.003112      0.000400
      9.43525      3.89867      6.83057        -0.000024     -0.003112      0.000400
      4.18128      9.15929      6.64709        -0.000024     -0.003112      0.000400
      9.43525      9.15929      6.83057        -0.000024     -0.003112      0.000400
      4.07671      1.27395      4.03871        -0.000000     -0.003088     -0.000000
      9.33067      1.27395      4.22219        -0.000000     -0.003088     -0.000000
      4.07671      6.53457      4.03871        -0.000000     -0.003088     -0.000000
      9.33067      6.53457      4.22219        -0.000000     -0.003088     -0.000000
      1.44973      3.92472      3.94697        -0.000000     -0.000980     -0.000000
      6.70369      3.92472      4.13045        -0.000000     -0.000980     -0.000000
      1.44973      9.18534      3.94697        -0.000000     -0.000980     -0.000000
      6.70369      9.18534      4.13045        -0.000000     -0.000980     -0.000000
     10.67379      0.03961      5.56798         0.001104      0.002454     -0.002015
      5.41983      0.03961      5.38450         0.001104      0.002454     -0.002015
     10.67379      5.30023      5.56798         0.001104      0.002454     -0.002015
      5.41983      5.30023      5.38450         0.001104      0.002454     -0.002015
      2.73358      0.03961      2.69292        -0.001104      0.002454      0.002015
      7.98755      0.03961      2.87640        -0.001104      0.002454      0.002015
      2.73358      5.30023      2.69292        -0.001104      0.002454      0.002015
      7.98755      5.30023      2.87640        -0.001104      0.002454      0.002015
      2.61120      2.66992      0.09129         0.001104      0.002454     -0.002015
      7.86517      2.66992      0.27477         0.001104      0.002454     -0.002015
      2.61120      7.93054      0.09129         0.001104      0.002454     -0.002015
      7.86517      7.93054      0.27477         0.001104      0.002454     -0.002015
      0.28825      2.66992      7.80264        -0.001104      0.002454      0.002015
      5.54221      2.66992      7.98612        -0.001104      0.002454      0.002015
      0.28825      7.93054      7.80264        -0.001104      0.002454      0.002015
      5.54221      7.93054      7.98612        -0.001104      0.002454      0.002015
     10.49946      0.03816      0.37031         0.001292      0.002692     -0.004208
      5.24550      0.03816      0.18683         0.001292      0.002692     -0.004208
     10.49946      5.29878      0.37031         0.001292      0.002692     -0.004208
      5.24550      5.29878      0.18683         0.001292      0.002692     -0.004208
      2.90792      0.03816      7.89058        -0.001292      0.002692      0.004208
      8.16188      0.03816      8.07406        -0.001292      0.002692      0.004208
      2.90792      5.29878      7.89058        -0.001292      0.002692      0.004208
      8.16188      5.29878      8.07406        -0.001292      0.002692      0.004208
      2.80016      2.66847      5.29655         0.001292      0.002692     -0.004208
      8.05412      2.66847      5.48003         0.001292      0.002692     -0.004208
      2.80016      7.92909      5.29655         0.001292      0.002692     -0.004208
      8.05412      7.92909      5.48003         0.001292      0.002692     -0.004208
      0.09929      2.66847      2.59738        -0.001292      0.002692      0.004208
      5.35325      2.66847      2.78086        -0.001292      0.002692      0.004208
      0.09929      7.92909      2.59738        -0.001292      0.002692      0.004208
      5.35325      7.92909      2.78086        -0.001292      0.002692      0.004208
 -----------------------------------------------------------------------------------
    total drift:                               -0.000005      0.019657     -0.000327


--------------------------------------------------------------------------------------------------------



  FREE ENERGIE OF THE ION-ELECTRON SYSTEM (eV)
  ---------------------------------------------------
  free  energy   TOTEN  =      -327.60188851 eV

  energy  without entropy=     -327.60188851  energy(sigma->0) =     -327.60188851
 


--------------------------------------------------------------------------------------------------------


    POTLOK:  cpu time    0.1663: real time    0.1673


--------------------------------------------------------------------------------------------------------


 writing wavefunctions
     LOOP+:  cpu time 3211.4296: real time 3234.7696
    4ORBIT:  cpu time    0.0000: real time    0.0000
 


 total charge     
 
# of ion       s       p       d       tot
------------------------------------------
    1        1.314   2.409   0.000   3.723
    2        1.314   2.409   0.000   3.723
    3        1.314   2.409   0.000   3.723
    4        1.314   2.409   0.000   3.723
    5        1.314   2.409   0.000   3.723
    6        1.314   2.409   0.000   3.723
    7        1.314   2.409   0.000   3.723
    8        1.314   2.409   0.000   3.723
    9        1.315   2.405   0.000   3.720
   10        1.315   2.405   0.000   3.720
   11        1.315   2.405   0.000   3.720
   12        1.315   2.405   0.000   3.720
   13        1.313   2.412   0.000   3.725
   14        1.313   2.412   0.000   3.725
   15        1.313   2.412   0.000   3.725
   16        1.313   2.412   0.000   3.725
   17        1.314   2.409   0.000   3.723
   18        1.314   2.409   0.000   3.723
   19        1.314   2.409   0.000   3.723
   20        1.314   2.409   0.000   3.723
   21        1.314   2.409   0.000   3.723
   22        1.314   2.409   0.000   3.723
   23        1.314   2.409   0.000   3.723
   24        1.314   2.409   0.000   3.723
   25        1.315   2.405   0.000   3.720
   26        1.315   2.405   0.000   3.720
   27        1.315   2.405   0.000   3.720
   28        1.315   2.405   0.000   3.720
   29        1.313   2.412   0.000   3.725
   30        1.313   2.412   0.000   3.725
   31        1.313   2.412   0.000   3.725
   32        1.313   2.412   0.000   3.725
   33        0.259   6.201   8.917  15.377
   34        0.259   6.201   8.917  15.377
   35        0.259   6.201   8.917  15.377
   36        0.259   6.201   8.917  15.377
   37        0.259   6.201   8.917  15.377
   38        0.259   6.201   8.917  15.377
   39        0.259   6.201   8.917  15.377
   40        0.259   6.201   8.917  15.377
   41        0.259   6.201   8.917  15.377
   42        0.259   6.201   8.917  15.377
   43        0.259   6.201   8.917  15.377
   44        0.259   6.201   8.917  15.377
   45        0.259   6.201   8.917  15.377
   46        0.259   6.201   8.917  15.377
   47        0.259   6.201   8.917  15.377
   48        0.259   6.201   8.917  15.377
   49        0.349   6.349   5.821  12.520
   50        0.349   6.349   5.821  12.520
   51        0.349   6.349   5.822  12.520
   52        0.349   6.349   5.822  12.520
   53        0.349   6.349   5.821  12.520
   54        0.349   6.349   5.821  12.520
   55        0.349   6.349   5.822  12.520
   56        0.349   6.349   5.822  12.520
   57        0.349   6.349   5.822  12.520
   58        0.349   6.349   5.822  12.520
   59        0.349   6.349   5.822  12.520
   60        0.349   6.349   5.822  12.520
   61        0.349   6.349   5.822  12.520
   62        0.349   6.349   5.822  12.520
   63        0.349   6.349   5.822  12.520
   64        0.349   6.349   5.822  12.520
--------------------------------------------------
tot         51.779 277.888 235.812 565.479
 


 magnetization (x)
 
# of ion       s       p       d       tot
------------------------------------------
    1       -0.000  -0.017   0.000  -0.017
    2       -0.000  -0.017   0.000  -0.017
    3       -0.000  -0.017   0.000  -0.017
    4       -0.000  -0.017   0.000  -0.017
    5        0.000   0.017   0.000   0.017
    6        0.000   0.017   0.000   0.017
    7        0.000   0.017   0.000   0.017
    8        0.000   0.017   0.000   0.017
    9       -0.000   0.000   0.000   0.000
   10        0.000  -0.000   0.000  -0.000
   11       -0.000   0.000   0.000   0.000
   12        0.000  -0.000   0.000  -0.000
   13        0.000  -0.000   0.000  -0.000
   14        0.000  -0.000   0.000  -0.000
   15       -0.000  -0.000   0.000  -0.000
   16       -0.000  -0.000   0.000  -0.000
   17        0.000   0.017   0.000   0.017
   18        0.000   0.017   0.000   0.017
   19        0.000   0.017   0.000   0.017
   20        0.000   0.017   0.000   0.017
   21       -0.000  -0.017   0.000  -0.017
   22       -0.000  -0.017   0.000  -0.017
   23       -0.000  -0.017   0.000  -0.017
   24       -0.000  -0.017   0.000  -0.017
   25       -0.000   0.000   0.000   0.000
   26       -0.000   0.000   0.000   0.000
   27       -0.000   0.000   0.000   0.000
   28       -0.000   0.000   0.000   0.000
   29        0.000  -0.000   0.000  -0.000
   30        0.000   0.000   0.000   0.000
   31        0.000  -0.000   0.000  -0.000
   32       -0.000   0.000   0.000   0.000
   33        0.000   0.001  -0.002  -0.001
   34        0.000   0.001  -0.002  -0.001
   35        0.000   0.001  -0.002  -0.001
   36        0.000   0.001  -0.002  -0.001
   37       -0.000  -0.001   0.002   0.001
   38       -0.000  -0.001   0.002   0.001
   39       -0.000  -0.001   0.002   0.001
   40       -0.000  -0.001   0.002   0.001
   41        0.000   0.001  -0.002  -0.001
   42        0.000   0.001  -0.002  -0.001
   43        0.000   0.001  -0.002  -0.001
   44        0.000   0.001  -0.002  -0.001
   45       -0.000  -0.001   0.002   0.001
   46       -0.000  -0.001   0.002   0.001
   47       -0.000  -0.001   0.002   0.001
   48       -0.000  -0.001   0.002   0.001
   49        0.020   0.054   3.668   3.742
   50        0.020   0.054   3.668   3.742
   51        0.020   0.054   3.668   3.742
   52        0.020   0.054   3.668   3.742
   53       -0.020  -0.054  -3.668  -3.742
   54       -0.020  -0.054  -3.668  -3.742
   55       -0.020  -0.054  -3.668  -3.742
   56       -0.020  -0.054  -3.668  -3.742
   57        0.020   0.054   3.668   3.742
   58        0.020   0.054   3.668   3.742
   59        0.020   0.054   3.668   3.742
   60        0.020   0.054   3.668   3.742
   61       -0.020  -0.054  -3.668  -3.742
   62       -0.020  -0.054  -3.668  -3.742
   63       -0.020  -0.054  -3.668  -3.742
   64       -0.020  -0.054  -3.668  -3.742
--------------------------------------------------
tot         -0.000   0.000  -0.000  -0.000
 
 BZINTS: Fermi energy:  4.925669;688.000000 electrons
         Band energy:***********;  BLOECHL correction:  0.000000

 total amount of memory used by VASP MPI-rank0   348353. kBytes
=======================================================================

   base      :      30000. kBytes
   nonl-proj :     216760. kBytes
   fftplans  :       4588. kBytes
   grid      :      69719. kBytes
   one-center:       1990. kBytes
   wavefun   :      25296. kBytes
 
  
  
 General timing and accounting informations for this job:
 ========================================================
  
                  Total CPU time used (sec):     3270.546
                            User time (sec):     3259.555
                          System time (sec):       10.991
                         Elapsed time (sec):     3295.203
  
                   Maximum memory used (kb):      709836.
                   Average memory used (kb):           0.
  
                          Minor page faults:       605196
                          Major page faults:         5813
                 Voluntary context switches:         6988
