       N       E                     dE             d eps       ncg     rms          rms(c)
DAV:   1     0.601617063577E+04    0.60162E+04   -0.51811E+05 16384   0.197E+03
DAV:   2    -0.121737832933E+03   -0.61379E+04   -0.60314E+04 18432   0.448E+02
DAV:   3    -0.365998455572E+03   -0.24426E+03   -0.24354E+03 22528   0.969E+01
DAV:   4    -0.369371357273E+03   -0.33729E+01   -0.33728E+01 20480   0.115E+01
DAV:   5    -0.369478282722E+03   -0.10693E+00   -0.10692E+00 20736   0.200E+00    0.504E+01
DAV:   6    -0.338171217339E+03    0.31307E+02   -0.42918E+01 26112   0.219E+01    0.290E+01
DAV:   7    -0.329752456844E+03    0.84188E+01   -0.21646E+01 20480   0.149E+01    0.227E+01
DAV:   8    -0.327823967092E+03    0.19285E+01   -0.78275E+00 23552   0.616E+00    0.803E+00
DAV:   9    -0.327622406937E+03    0.20156E+00   -0.22150E+00 23296   0.477E+00    0.413E+00
DAV:  10    -0.327761306090E+03   -0.13890E+00   -0.24327E+00 23040   0.400E+00    0.506E+00
DAV:  11    -0.327658740361E+03    0.10257E+00   -0.93693E-01 20224   0.279E+00    0.152E+00
DAV:  12    -0.327687307066E+03   -0.28567E-01   -0.98382E-02 23552   0.471E-01    0.635E-01
DAV:  13    -0.327694777339E+03   -0.74703E-02   -0.23036E-02 21504   0.285E-01    0.335E-01
DAV:  14    -0.327697165901E+03   -0.23886E-02   -0.62525E-03 20992   0.122E-01    0.167E-01
DAV:  15    -0.327698223863E+03   -0.10580E-02   -0.24728E-03 24576   0.638E-02    0.963E-02
DAV:  16    -0.327698806542E+03   -0.58268E-03   -0.19497E-03 20992   0.431E-02    0.594E-02
DAV:  17    -0.327698994288E+03   -0.18775E-03   -0.96200E-04 20480   0.341E-02    0.313E-02
DAV:  18    -0.327699027619E+03   -0.33332E-04   -0.18685E-04 21504   0.160E-02    0.138E-02
DAV:  19    -0.327699033092E+03   -0.54729E-05   -0.24309E-05 20480   0.745E-03    0.860E-03
DAV:  20    -0.327699034988E+03   -0.18961E-05   -0.12219E-05 22016   0.477E-03    0.467E-03
DAV:  21    -0.327699035557E+03   -0.56870E-06   -0.22567E-06 18432   0.175E-03    0.231E-03
DAV:  22    -0.327699035703E+03   -0.14578E-06   -0.34867E-07 24576   0.104E-03    0.117E-03
DAV:  23    -0.327699035785E+03   -0.81971E-07   -0.11016E-07 19712   0.513E-04    0.626E-04
DAV:  24    -0.327699035820E+03   -0.35026E-07   -0.68585E-08 18944   0.269E-04    0.383E-04
DAV:  25    -0.327699035837E+03   -0.17142E-07   -0.53611E-08 15104   0.237E-04    0.170E-04
DAV:  26    -0.327699035838E+03   -0.13824E-08   -0.18774E-09 13824   0.872E-05
   1 F= -.32769904E+03 E0= -.32769904E+03  d E =0.000000E+00  mag=     0.0000
