 vasp.5.4.4.18Apr17-6-g9f103f2a35 (build Oct 30 2023 17:30:16) complex          
  
 executed on             LinuxIFC date 2024.06.30  04:42:38
 running on  256 total cores
 distrk:  each k-point on  256 cores,    1 groups
 distr:  one band on NCORES_PER_BAND=   1 cores,  256 groups


--------------------------------------------------------------------------------------------------------


 INCAR:
 POTCAR:    PAW_PBE S 06Sep2000                   
 POTCAR:     PAW_PBE Cu_pv 06Sep2000              
 POTCAR:     PAW_PBE Fe_pv 02Aug2007              

 ----------------------------------------------------------------------------- 
|                                                                             |
|           W    W    AA    RRRRR   N    N  II  N    N   GGGG   !!!           |
|           W    W   A  A   R    R  NN   N  II  NN   N  G    G  !!!           |
|           W    W  A    A  R    R  N N  N  II  N N  N  G       !!!           |
|           W WW W  AAAAAA  RRRRR   N  N N  II  N  N N  G  GGG   !            |
|           WW  WW  A    A  R   R   N   NN  II  N   NN  G    G                |
|           W    W  A    A  R    R  N    N  II  N    N   GGGG   !!!           |
|                                                                             |
|      For optimal performance we recommend to set                            |
|        NCORE= 4 - approx SQRT( number of cores)                             |
|      NCORE specifies how many cores store one orbital (NPAR=cpu/NCORE).     |
|      This setting can  greatly improve the performance of VASP for DFT.     |
|      The default,   NCORE=1            might be grossly inefficient         |
|      on modern multi-core architectures or massively parallel machines.     |
|      Do your own testing !!!!                                               |
|      Unfortunately you need to use the default for GW and RPA calculations. |
|      (for HF NCORE is supported but not extensively tested yet)             |
|                                                                             |
 ----------------------------------------------------------------------------- 

 POTCAR:    PAW_PBE S 06Sep2000                   
   SHA256 =  0fc7481fb0695f01bdc6462160264c5c84044ae9ec85a907d398b887a2bc3132 S/
   COPYR  = (c) Copyright 06Sep2000 Georg Kresse                                
   COPYR  = This file is part of the software VASP. Any use, copying, and all ot
   COPYR  = If you do not have a valid VASP license, you may not use, copy or di
   VRHFIN =S : s2p4                                                             
   LEXCH  = PE                                                                  
   EATOM  =   276.8230 eV,   20.3459 Ry                                         
                                                                                
   TITEL  = PAW_PBE S 06Sep2000                                                 
   LULTRA =        F    use ultrasoft PP ?                                      
   IUNSCR =        1    unscreen: 0-lin 1-nonlin 2-no                           
   RPACOR =    1.500    partial core radius                                     
   POMASS =   32.066; ZVAL   =    6.000    mass and valenz                      
   RCORE  =    1.900    outmost cutoff radius                                   
   RWIGS  =    2.200; RWIGS  =    1.164    wigner-seitz radius (au A)           
   ENMAX  =  258.689; ENMIN  =  194.016 eV                                      
   ICORE  =        2    local potential                                         
   LCOR   =        T    correct aug charges                                     
   LPAW   =        T    paw PP                                                  
   EAUG   =  335.092                                                            
   DEXC   =    0.000                                                            
   RMAX   =    1.942    core radius for proj-oper                               
   RAUG   =    1.300    factor for augmentation sphere                          
   RDEP   =    1.954    radius for radial grids                                 
   RDEPT  =    1.744    core radius for aug-charge                              
                                                                                
   Atomic configuration                                                         
    6 entries                                                                   
     n  l   j            E        occ.                                          
     1  0  0.50     -2405.8406   2.0000                                         
     2  0  0.50      -211.7007   2.0000                                         
     2  1  1.50      -156.4958   6.0000                                         
     3  0  0.50       -17.2562   2.0000                                         
     3  1  0.50        -7.0085   4.0000                                         
     3  2  1.50        -6.8029   0.0000                                         
   Description                                                                  
     l       E           TYP  RCUT    TYP  RCUT                                 
     0    -17.2561641     23  1.900                                             
     0    -15.8743224     23  1.900                                             
     1     -7.0085400     23  1.900                                             
     1     -2.7779785     23  1.900                                             
     2     -6.8029130     23  1.900                                             
  local pseudopotential read in
  partial core-charges read in
  partial kinetic energy density read in
  atomic valenz-charges read in
  non local Contribution for L=           0  read in
    real space projection operators read in
  non local Contribution for L=           0  read in
    real space projection operators read in
  non local Contribution for L=           1  read in
    real space projection operators read in
  non local Contribution for L=           1  read in
    real space projection operators read in
    PAW grid and wavefunctions read in
 
   number of l-projection  operators is LMAX  =           4
   number of lm-projection operators is LMMAX =           8
 
 POTCAR:     PAW_PBE Cu_pv 06Sep2000              
   SHA256 =  cb7b504e2ea725fe1f25c85a9ac77d4012ce94cd394135b722c4e25ec297f1cb Cu
   COPYR  = (c) Copyright 06Sep2000 Georg Kresse                                
   COPYR  = This file is part of the software VASP. Any use, copying, and all ot
   COPYR  = If you do not have a valid VASP license, you may not use, copy or di
   VRHFIN =Cu: d10 p1                                                           
   LEXCH  = PE                                                                  
   EATOM  =  4120.1201 eV,  302.8203 Ry                                         
                                                                                
   TITEL  = PAW_PBE Cu_pv 06Sep2000                                             
   LULTRA =        F    use ultrasoft PP ?                                      
   IUNSCR =        1    unscreen: 0-lin 1-nonlin 2-no                           
   RPACOR =    1.500    partial core radius                                     
   POMASS =   63.546; ZVAL   =   17.000    mass and valenz                      
   RCORE  =    2.000    outmost cutoff radius                                   
   RWIGS  =    2.000; RWIGS  =    1.058    wigner-seitz radius (au A)           
   ENMAX  =  368.648; ENMIN  =  276.486 eV                                      
   RCLOC  =    1.304    cutoff for local pot                                    
   LCOR   =        T    correct aug charges                                     
   LPAW   =        T    paw PP                                                  
   EAUG   =  758.233                                                            
   DEXC   =    0.000                                                            
   RMAX   =    2.046    core radius for proj-oper                               
   RAUG   =    1.300    factor for augmentation sphere                          
   RDEP   =    2.025    radius for radial grids                                 
   RDEPT  =    1.558    core radius for aug-charge                              
                                                                                
   Atomic configuration                                                         
    8 entries                                                                   
     n  l   j            E        occ.                                          
     1  0  0.50     -8850.2467   2.0000                                         
     2  0  0.50     -1062.3498   2.0000                                         
     2  1  1.50      -916.8226   6.0000                                         
     3  0  0.50      -114.6929   2.0000                                         
     3  1  1.50       -72.1325   6.0000                                         
     3  2  2.50        -5.0394  10.0000                                         
     4  0  0.50        -4.6097   1.0000                                         
     4  3  2.50        -1.3606   0.0000                                         
   Description                                                                  
     l       E           TYP  RCUT    TYP  RCUT                                 
     1    -72.1324777     23  1.700                                             
     1     -1.3605826     23  1.700                                             
     2     -5.0393776     23  2.000                                             
     2     -6.3999602     23  2.000                                             
     0     -4.6097062     23  1.800                                             
     0     14.1620818     23  1.800                                             
  local pseudopotential read in
  partial core-charges read in
  partial kinetic energy density read in
  atomic valenz-charges read in
  non local Contribution for L=           1  read in
    real space projection operators read in
  non local Contribution for L=           1  read in
    real space projection operators read in
  non local Contribution for L=           2  read in
    real space projection operators read in
  non local Contribution for L=           2  read in
    real space projection operators read in
  non local Contribution for L=           0  read in
    real space projection operators read in
  non local Contribution for L=           0  read in
    real space projection operators read in
    PAW grid and wavefunctions read in
 
   number of l-projection  operators is LMAX  =           6
   number of lm-projection operators is LMMAX =          18
 
 POTCAR:     PAW_PBE Fe_pv 02Aug2007              
   SHA256 =  5d22e414b1f82158bf2c7ecb8b97b28fd0923e48cadc1c3bf74d524558f5dd32 Fe
   COPYR  = (c) Copyright 02Aug2007 Georg Kresse                                
   COPYR  = This file is part of the software VASP. Any use, copying, and all ot
   COPYR  = If you do not have a valid VASP license, you may not use, copy or di
   VRHFIN =Fe:  3pd7s1                                                          
   LEXCH  = PE                                                                  
   EATOM  =  2457.4239 eV,  180.6156 Ry                                         
                                                                                
   TITEL  = PAW_PBE Fe_pv 02Aug2007                                             
   LULTRA =        F    use ultrasoft PP ?                                      
   IUNSCR =        1    unscreen: 0-lin 1-nonlin 2-no                           
   RPACOR =    1.750    partial core radius                                     
   POMASS =   55.847; ZVAL   =   14.000    mass and valenz                      
   RCORE  =    2.200    outmost cutoff radius                                   
   RWIGS  =    2.200; RWIGS  =    1.164    wigner-seitz radius (au A)           
   ENMAX  =  293.238; ENMIN  =  219.928 eV                                      
   ICORE  =        3    local potential                                         
   LCOR   =        T    correct aug charges                                     
   LPAW   =        T    paw PP                                                  
   EAUG   =  578.342                                                            
   DEXC   =    0.000                                                            
   RMAX   =    2.249    core radius for proj-oper                               
   RAUG   =    1.300    factor for augmentation sphere                          
   RDEP   =    2.296    radius for radial grids                                 
   RDEPT  =    1.766    core radius for aug-charge                              
                                                                                
   Atomic configuration                                                         
    8 entries                                                                   
     n  l   j            E        occ.                                          
     1  0  0.50     -6993.8440   2.0000                                         
     2  0  0.50      -814.6047   2.0000                                         
     2  1  1.50      -693.3689   6.0000                                         
     3  0  0.50       -89.4732   2.0000                                         
     3  1  1.50       -55.6373   6.0000                                         
     3  2  2.50        -3.8151   7.0000                                         
     4  0  0.50        -4.2551   1.0000                                         
     4  3  2.50        -1.3606   0.0000                                         
   Description                                                                  
     l       E           TYP  RCUT    TYP  RCUT                                 
     1    -55.6372668     23  2.000                                             
     1     -5.4423304     23  2.000                                             
     2     -3.8151096     23  2.200                                             
     2     -5.1756922     23  2.200                                             
     0     -4.2550951     23  2.200                                             
     0     27.2116520     23  2.200                                             
     3     -1.3605826     23  2.200                                             
  local pseudopotential read in
  partial core-charges read in
  partial kinetic energy density read in
  atomic valenz-charges read in
  non local Contribution for L=           1  read in
    real space projection operators read in
  non local Contribution for L=           1  read in
    real space projection operators read in
  non local Contribution for L=           2  read in
    real space projection operators read in
  non local Contribution for L=           2  read in
    real space projection operators read in
  non local Contribution for L=           0  read in
    real space projection operators read in
  non local Contribution for L=           0  read in
    real space projection operators read in
    PAW grid and wavefunctions read in
 
   number of l-projection  operators is LMAX  =           6
   number of lm-projection operators is LMMAX =          18
 

 ----------------------------------------------------------------------------- 
|                                                                             |
|  ADVICE TO THIS USER RUNNING 'VASP/VAMP'   (HEAR YOUR MASTER'S VOICE ...):  |
|                                                                             |
|      You have a (more or less) 'large supercell' and for larger cells       |
|      it might be more efficient to use real space projection opertators     |
|      So try LREAL= Auto  in the INCAR   file.                               |
|      Mind:          For very  accurate calculation you might also keep the  |
|      reciprocal projection scheme          (i.e. LREAL=.FALSE.)             |
|                                                                             |
 ----------------------------------------------------------------------------- 


 ----------------------------------------------------------------------------- 
|                                                                             |
|  ADVICE TO THIS USER RUNNING 'VASP/VAMP'   (HEAR YOUR MASTER'S VOICE ...):  |
|                                                                             |
|      You enforced a specific xc-type in the INCAR file,                     |
|      a different type was found on the POTCAR file                          |
|          I HOPE YOU KNOW, WHAT YOU ARE  DOING                               |
|                                                                             |
 ----------------------------------------------------------------------------- 

  PAW_PBE S 06Sep2000                   :
 energy of atom  1       EATOM= -276.8230
 kinetic energy error for atom=    0.0007 (will be added to EATOM!!)
   PAW_PBE Cu_pv 06Sep2000              :
 energy of atom  2       EATOM=-4120.1201
 kinetic energy error for atom=    0.0094 (will be added to EATOM!!)
   PAW_PBE Fe_pv 02Aug2007              :
 energy of atom  3       EATOM=-2457.4239
 kinetic energy error for atom=    0.0025 (will be added to EATOM!!)
 
 
 POSCAR: Fe16 Cu16 S32                           
  positions in direct lattice
  No initial velocities read in
 exchange correlation table for  LEXCH =       14
   RHO(1)=    0.500       N(1)  =     2000
   RHO(2)=  100.500       N(2)  =     4000
 


--------------------------------------------------------------------------------------------------------


 ion  position               nearest neighbor table
   1  0.126  0.121  0.126-  41 2.25  61 2.26  37 2.27  49 2.29
   2  0.626  0.121  0.126-  42 2.25  62 2.26  38 2.27  50 2.29
   3  0.126  0.621  0.126-  43 2.25  63 2.26  39 2.27  51 2.29
   4  0.626  0.621  0.126-  44 2.25  64 2.26  40 2.27  52 2.29
   5  0.374  0.371  0.124-  39 2.25  52 2.26  41 2.27  62 2.29
   6  0.874  0.371  0.124-  40 2.25  51 2.26  42 2.27  61 2.29
   7  0.374  0.871  0.124-  37 2.25  50 2.26  43 2.27  64 2.29
   8  0.874  0.871  0.124-  38 2.25  49 2.26  44 2.27  63 2.29
   9  0.125  0.372  0.875-  41 2.27  45 2.27  51 2.27  55 2.27
  10  0.625  0.372  0.875-  42 2.27  46 2.27  52 2.27  56 2.27
  11  0.125  0.872  0.875-  43 2.27  47 2.27  49 2.27  53 2.27
  12  0.625  0.872  0.875-  44 2.27  48 2.27  50 2.27  54 2.27
  13  0.375  0.123  0.875-  41 2.26  46 2.26  50 2.29  53 2.29
  14  0.875  0.123  0.875-  42 2.26  45 2.26  49 2.29  54 2.29
  15  0.375  0.623  0.875-  43 2.26  48 2.26  52 2.29  55 2.29
  16  0.875  0.623  0.875-  44 2.26  47 2.26  51 2.29  56 2.29
  17  0.124  0.121  0.624-  45 2.25  57 2.26  33 2.27  53 2.29
  18  0.624  0.121  0.624-  46 2.25  58 2.26  34 2.27  54 2.29
  19  0.124  0.621  0.624-  47 2.25  59 2.26  35 2.27  55 2.29
  20  0.624  0.621  0.624-  48 2.25  60 2.26  36 2.27  56 2.29
  21  0.376  0.371  0.626-  36 2.25  55 2.26  46 2.27  57 2.29
  22  0.876  0.371  0.626-  35 2.25  56 2.26  45 2.27  58 2.29
  23  0.376  0.871  0.626-  34 2.25  53 2.26  48 2.27  59 2.29
  24  0.876  0.871  0.626-  33 2.25  54 2.26  47 2.27  60 2.29
  25  0.375  0.122  0.375-  34 2.27  37 2.27  57 2.27  62 2.27
  26  0.875  0.122  0.375-  33 2.27  38 2.27  58 2.27  61 2.27
  27  0.375  0.622  0.375-  36 2.27  39 2.27  59 2.27  64 2.27
  28  0.875  0.622  0.375-  35 2.27  40 2.27  60 2.27  63 2.27
  29  0.125  0.373  0.375-  35 2.26  39 2.26  57 2.29  61 2.29
  30  0.625  0.373  0.375-  36 2.26  40 2.26  58 2.29  62 2.29
  31  0.125  0.873  0.375-  33 2.26  37 2.26  59 2.29  63 2.29
  32  0.625  0.873  0.375-  34 2.26  38 2.26  60 2.29  64 2.29
  33  0.998  0.003  0.500-  24 2.25  31 2.26  26 2.27  17 2.27
  34  0.498  0.003  0.500-  23 2.25  32 2.26  25 2.27  18 2.27
  35  0.998  0.503  0.500-  22 2.25  29 2.26  28 2.27  19 2.27
  36  0.498  0.503  0.500-  21 2.25  30 2.26  27 2.27  20 2.27
  37  0.252  0.003  0.250-   7 2.25  31 2.26  25 2.27   1 2.27
  38  0.752  0.003  0.250-   8 2.25  32 2.26  26 2.27   2 2.27
  39  0.252  0.503  0.250-   5 2.25  29 2.26  27 2.27   3 2.27
  40  0.752  0.503  0.250-   6 2.25  30 2.26  28 2.27   4 2.27
  41  0.248  0.253  0.000-   1 2.25  13 2.26   9 2.27   5 2.27
  42  0.748  0.253  0.000-   2 2.25  14 2.26  10 2.27   6 2.27
  43  0.248  0.753  0.000-   3 2.25  15 2.26  11 2.27   7 2.27
  44  0.748  0.753  0.000-   4 2.25  16 2.26  12 2.27   8 2.27
  45  0.002  0.253  0.750-  17 2.25  14 2.26   9 2.27  22 2.27
  46  0.502  0.253  0.750-  18 2.25  13 2.26  10 2.27  21 2.27
  47  0.002  0.753  0.750-  19 2.25  16 2.26  11 2.27  24 2.27
  48  0.502  0.753  0.750-  20 2.25  15 2.26  12 2.27  23 2.27
  49  0.999  0.003  0.001-   8 2.26  11 2.27  14 2.29   1 2.29
  50  0.499  0.003  0.001-   7 2.26  12 2.27  13 2.29   2 2.29
  51  0.999  0.503  0.001-   6 2.26   9 2.27  16 2.29   3 2.29
  52  0.499  0.503  0.001-   5 2.26  10 2.27  15 2.29   4 2.29
  53  0.251  0.003  0.749-  23 2.26  11 2.27  13 2.29  17 2.29
  54  0.751  0.003  0.749-  24 2.26  12 2.27  14 2.29  18 2.29
  55  0.251  0.503  0.749-  21 2.26   9 2.27  15 2.29  19 2.29
  56  0.751  0.503  0.749-  22 2.26  10 2.27  16 2.29  20 2.29
  57  0.249  0.253  0.501-  17 2.26  25 2.27  29 2.29  21 2.29
  58  0.749  0.253  0.501-  18 2.26  26 2.27  30 2.29  22 2.29
  59  0.249  0.753  0.501-  19 2.26  27 2.27  31 2.29  23 2.29
  60  0.749  0.753  0.501-  20 2.26  28 2.27  32 2.29  24 2.29
  61  0.001  0.253  0.249-   1 2.26  26 2.27  29 2.29   6 2.29
  62  0.501  0.253  0.249-   2 2.26  25 2.27  30 2.29   5 2.29
  63  0.001  0.753  0.249-   3 2.26  28 2.27  31 2.29   8 2.29
  64  0.501  0.753  0.249-   4 2.26  27 2.27  32 2.29   7 2.29
 
  LATTYP: Found a simple monoclinic cell.
 ALAT       =    15.2437929028
 B/A-ratio  =     0.6905298483
 C/A-ratio  =     1.5672557637
 COS(beta)  =    -0.9540723515
  
  Lattice vectors:
  
 A1 = ( -10.8296960000,   0.0000000000, -10.7280430000)
 A2 = (   0.0000000000, -10.5262940000,   0.0000000000)
 A3 = (  11.1564260000,   0.0000000000,  21.1260580000)


Analysis of symmetry for initial positions (statically):
=====================================================================
 Subroutine PRICEL returns following result:
 
  LATTYP: Found a base centered monoclinic cell.
 ALAT       =    11.3563859382
 B/A-ratio  =     0.4634526361
 C/A-ratio  =     0.9160614214
 COS(beta)  =    -0.8047862324
  
  Lattice vectors:
  
 A1 = (  -2.4623765000,  -2.6315735000,   5.1165005000)
 A2 = (  -2.4623765000,   2.6315735000,   5.1165005000)
 A3 = (  -0.3267300000,   0.0000000000, -10.3980150000)
 
   8 primitive cells build up your supercell.
 

 Routine SETGRP: Setting up the symmetry group for a 
 simple monoclinic supercell.


 Subroutine GETGRP returns: Found  2 space group operations
 (whereof  1 operations were pure point group operations)
 out of a pool of  4 trial point group operations.


The static configuration has the point symmetry C_1 .
 The point group associated with its full space group is C_2 .


Analysis of symmetry for dynamics (positions and initial velocities):
=====================================================================
 Subroutine PRICEL returns following result:
 
  LATTYP: Found a base centered monoclinic cell.
 ALAT       =    11.3563859382
 B/A-ratio  =     0.4634526361
 C/A-ratio  =     0.9160614214
 COS(beta)  =    -0.8047862324
  
  Lattice vectors:
  
 A1 = (  -2.4623765000,  -2.6315735000,   5.1165005000)
 A2 = (  -2.4623765000,   2.6315735000,   5.1165005000)
 A3 = (  -0.3267300000,   0.0000000000, -10.3980150000)
 
   8 primitive cells build up your supercell.
 

 Routine SETGRP: Setting up the symmetry group for a 
 simple monoclinic supercell.


 Subroutine GETGRP returns: Found  2 space group operations
 (whereof  1 operations were pure point group operations)
 out of a pool of  4 trial point group operations.


The dynamic configuration has the point symmetry C_1 .
 The point group associated with its full space group is C_2 .


Analysis of structural, dynamic, and magnetic symmetry:
=====================================================================
 Subroutine PRICEL returns following result:
 
  LATTYP: Found a base centered monoclinic cell.
 ALAT       =    11.3563859382
 B/A-ratio  =     0.4634526361
 C/A-ratio  =     0.9160614214
 COS(beta)  =    -0.8047862324
  
  Lattice vectors:
  
 A1 = (  -2.4623765000,  -2.6315735000,   5.1165005000)
 A2 = (  -2.4623765000,   2.6315735000,   5.1165005000)
 A3 = (  -0.3267300000,   0.0000000000, -10.3980150000)
 
   8 primitive cells build up your supercell.
 

 Routine SETGRP: Setting up the symmetry group for a 
 simple monoclinic supercell.


 Subroutine GETGRP returns: Found  2 space group operations
 (whereof  1 operations were pure point group operations)
 out of a pool of  4 trial point group operations.


The magnetic configuration has the point symmetry C_1 .
 The point group associated with its full space group is C_2 .


 Subroutine INISYM returns: Found  2 space group operations
 (whereof  1 operations are pure point group operations),
 and found     8 'primitive' translations

 
 
 KPOINTS: Automatic mesh                          

Automatic generation of k-mesh.
Space group operators:
 irot       det(A)        alpha          n_x          n_y          n_z        tau_x        tau_y        tau_z
    1     1.000000     0.000000     1.000000     0.000000     0.000000     0.000000     0.000000     0.000000
    2     1.000000   180.000000     0.000000     1.000000     0.000000    -0.250000     0.000000    -0.250000
 
 Subroutine IBZKPT returns following result:
 ===========================================
 
 Found      8 irreducible k-points:
 
 Following reciprocal coordinates:
            Coordinates               Weight
  0.000000  0.000000  0.000000      1.000000
  0.500000  0.000000 -0.000000      1.000000
  0.000000  0.500000  0.000000      1.000000
  0.500000  0.500000 -0.000000      1.000000
  0.000000  0.000000  0.500000      1.000000
  0.500000  0.000000  0.500000      1.000000
  0.000000  0.500000  0.500000      1.000000
  0.500000  0.500000  0.500000      1.000000
 
 Following cartesian coordinates:
            Coordinates               Weight
  0.000000  0.000000  0.000000      1.000000
  0.047653  0.000000 -0.001497      1.000000
  0.000000  0.047500  0.000000      1.000000
  0.047653  0.047500 -0.001497      1.000000
 -0.001512  0.000000  0.048134      1.000000
  0.046140  0.000000  0.046636      1.000000
 -0.001512  0.047500  0.048134      1.000000
  0.046140  0.047500  0.046636      1.000000
 
 TETIRR: Found     24 inequivalent tetrahedra from       48
 
 Subroutine IBZKPT_HF returns following result:
 ==============================================
 
 Found      8 k-points in 1st BZ
 the following      8 k-points will be used (e.g. in the exchange kernel)
 Following reciprocal coordinates:   # in IRBZ
  0.000000  0.000000  0.000000    0.12500000   1 t-inv F
  0.500000  0.000000 -0.000000    0.12500000   2 t-inv F
  0.000000  0.500000  0.000000    0.12500000   3 t-inv F
  0.500000  0.500000 -0.000000    0.12500000   4 t-inv F
  0.000000  0.000000  0.500000    0.12500000   5 t-inv F
  0.500000  0.000000  0.500000    0.12500000   6 t-inv F
  0.000000  0.500000  0.500000    0.12500000   7 t-inv F
  0.500000  0.500000  0.500000    0.12500000   8 t-inv F


--------------------------------------------------------------------------------------------------------




 Dimension of arrays:
   k-points           NKPTS =      8   k-points in BZ     NKDIM =      8   number of bands    NBANDS=    512
   number of dos      NEDOS =    301   number of ions     NIONS =     64
   non local maximal  LDIM  =      6   non local SUM 2l+1 LMDIM =     18
   total plane-waves  NPLWV = 829440
   max r-space proj   IRMAX =      1   max aug-charges    IRDMAX=  22951
   dimension x,y,z NGX =    96 NGY =   96 NGZ =   90
   dimension x,y,z NGXF=   192 NGYF=  192 NGZF=  180
   support grid    NGXF=   192 NGYF=  192 NGZF=  180
   ions per type =              32  16  16
   NGX,Y,Z   is equivalent  to a cutoff of  15.19, 15.16, 14.38 a.u.
   NGXF,Y,Z  is equivalent  to a cutoff of  30.38, 30.32, 28.76 a.u.

 SYSTEM =  CuFeS2                                  
 POSCAR =  Fe16 Cu16 S32                           

 Startparameter for this run:
   NWRITE =      2    write-flag & timer
   PREC   = accura    normal or accurate (medium, high low for compatibility)
   ISTART =      0    job   : 0-new  1-cont  2-samecut
   ICHARG =      1    charge: 1-file 2-atom 10-const
   ISPIN  =      2    spin polarized calculation?
   LNONCOLLINEAR =      F non collinear calculations
   LSORBIT =      F    spin-orbit coupling
   INIWAV =      1    electr: 0-lowe 1-rand  2-diag
   LASPH  =      F    aspherical Exc in radial PAW
   METAGGA=      F    non-selfconsistent MetaGGA calc.

 Electronic Relaxation 1
   ENCUT  =  700.0 eV  51.45 Ry    7.17 a.u.  22.67 22.71 22.44*2*pi/ulx,y,z
   ENINI  =  700.0     initial cutoff
   ENAUG  =  758.2 eV  augmentation charge cutoff
   NELM   =    500;   NELMIN=  2; NELMDL=  0     # of ELM steps 
   EDIFF  = 0.1E-07   stopping-criterion for ELM
   LREAL  =      F    real-space projection
   NLSPLINE    = F    spline interpolate recip. space projectors
   LCOMPAT=      F    compatible to vasp.4.4
   GGA_COMPAT  = T    GGA compatible to vasp.4.4-vasp.4.6
   LMAXPAW     = -100 max onsite density
   LMAXMIX     =    4 max onsite mixed and CHGCAR
   VOSKOWN=      0    Vosko Wilk Nusair interpolation
   ROPT   =    0.00000   0.00000   0.00000
 Ionic relaxation
   EDIFFG = -.1E-04   stopping-criterion for IOM
   NSW    =      0    number of steps for IOM
   NBLOCK =      1;   KBLOCK =      1    inner block; outer block 
   IBRION =     -1    ionic relax: 0-MD 1-quasi-New 2-CG
   NFREE  =      0    steps in history (QN), initial steepest desc. (CG)
   ISIF   =      2    stress and relaxation
   IWAVPR =     10    prediction:  0-non 1-charg 2-wave 3-comb
   ISYM   =      2    0-nonsym 1-usesym 2-fastsym
   LCORR  =      T    Harris-Foulkes like correction to forces

   POTIM  = 0.5000    time-step for ionic-motion
   TEIN   =    0.0    initial temperature
   TEBEG  =    0.0;   TEEND  =   0.0 temperature during run
   SMASS  =  -3.00    Nose mass-parameter (am)
   estimated Nose-frequenzy (Omega)   =  0.10E-29 period in steps =****** mass=  -0.252E-26a.u.
   SCALEE = 1.0000    scale energy and forces
   NPACO  =    256;   APACO  = 16.0  distance and # of slots for P.C.
   PSTRESS=    0.0 pullay stress

  Mass of Ions in am
   POMASS =  32.07 63.55 55.85
  Ionic Valenz
   ZVAL   =   6.00 17.00 14.00
  Atomic Wigner-Seitz radii
   RWIGS  =  -1.00 -1.00 -1.00
  virtual crystal weights 
   VCA    =   1.00  1.00  1.00
   NELECT =     688.0000    total number of electrons
   NUPDOWN=      -1.0000    fix difference up-down

 DOS related values:
   EMIN   =  10.00;   EMAX   =-10.00  energy-range for DOS
   EFERMI =   0.00
   ISMEAR =    -5;   SIGMA  =   0.03  broadening in eV -4-tet -1-fermi 0-gaus

 Electronic relaxation 2 (details)
   IALGO  =     38    algorithm
   LDIAG  =      T    sub-space diagonalisation (order eigenvalues)
   LSUBROT=      F    optimize rotation matrix (better conditioning)
   TURBO    =      0    0=normal 1=particle mesh
   IRESTART =      0    0=no restart 2=restart with 2 vectors
   NREBOOT  =      0    no. of reboots
   NMIN     =      0    reboot dimension
   EREF     =   0.00    reference energy to select bands
   IMIX   =      4    mixing-type and parameters
     AMIX     =   0.40;   BMIX     =  1.00
     AMIX_MAG =   1.60;   BMIX_MAG =  1.00
     AMIN     =   0.10
     WC   =   100.;   INIMIX=   1;  MIXPRE=   1;  MAXMIX= -45

 Intra band minimization:
   WEIMIN = 0.0000     energy-eigenvalue tresh-hold
   EBREAK =  0.49E-11  absolut break condition
   DEPER  =   0.30     relativ break condition  

   TIME   =   0.40     timestep for ELM

  volume/ion in A,a.u.               =      17.94       121.09
  Fermi-wavevector in a.u.,A,eV,Ry     =   1.380071  2.607956 25.913592  1.904595
  Thomas-Fermi vector in A             =   2.504982
 
 Write flags
   LWAVE        =      T    write WAVECAR
   LDOWNSAMPLE  =      F    k-point downsampling of WAVECAR
   LCHARG       =      T    write CHGCAR
   LVTOT        =      F    write LOCPOT, total local potential
   LVHAR        =      F    write LOCPOT, Hartree potential only
   LELF         =      F    write electronic localiz. function (ELF)
   LORBIT       =     11    0 simple, 1 ext, 2 COOP (PROOUT), +10 PAW based schemes


 Dipole corrections
   LMONO  =      F    monopole corrections only (constant potential shift)
   LDIPOL =      F    correct potential (dipole corrections)
   IDIPOL =      0    1-x, 2-y, 3-z, 4-all directions 
   EPSILON=  1.0000000 bulk dielectric constant

 LDA+U is selected, type is set to LDAUTYPE =  2
   angular momentum for each species LDAUL =     2    2    2
   U (eV)           for each species LDAUU =   0.0  0.1  4.7
   J (eV)           for each species LDAUJ =   0.0  0.0  0.0
 Exchange correlation treatment:
   GGA     =    PS    GGA type
   LEXCH   =    14    internal setting for exchange type
   VOSKOWN=      0    Vosko Wilk Nusair interpolation
   LHFCALC =     F    Hartree Fock is set to
   LHFONE  =     F    Hartree Fock one center treatment
   AEXX    =    0.0000 exact exchange contribution

 Linear response parameters
   LEPSILON=     F    determine dielectric tensor
   LRPA    =     F    only Hartree local field effects (RPA)
   LNABLA  =     F    use nabla operator in PAW spheres
   LVEL    =     F    velocity operator in full k-point grid
   LINTERFAST=   F  fast interpolation
   KINTER  =     0    interpolate to denser k-point grid
   CSHIFT  =0.1000    complex shift for real part using Kramers Kronig
   OMEGAMAX=  -1.0    maximum frequency
   DEG_THRESHOLD= 0.2000000E-02 threshold for treating states as degnerate
   RTIME   =   -0.100 relaxation time in fs
  (WPLASMAI=    0.000 imaginary part of plasma frequency in eV, 0.658/RTIME)
   DFIELD  = 0.0000000 0.0000000 0.0000000 field for delta impulse in time
 
 Orbital magnetization related:
   ORBITALMAG=     F  switch on orbital magnetization
   LCHIMAG   =     F  perturbation theory with respect to B field
   DQ        =  0.001000  dq finite difference perturbation B field
   LLRAUG    =     F  two centre corrections for induced B field

 PEAD related settings:
   LPEAD      =     T    switch on PEAD
   IPEAD      =     4    finite difference order for dpsi/dk
   LCALCPOL   =     T    calculate macroscopic polarization
   LCALCEPS   =     F    calculate dielectric tensor
   EFIELD_PEAD=    0.0000    0.0000    0.0000
   SKIP_EDOTP =     F
   LRPA       =     F
   SKIP_SCF   =     F


--------------------------------------------------------------------------------------------------------


 Static calculation
 charge density and potential will be updated during run
 spin polarized calculation
 Variant of blocked Davidson
 Davidson routine will perform the subspace rotation
 perform sub-space diagonalisation
    after iterative eigenvector-optimisation
 modified Broyden-mixing scheme, WC =      100.0
 initial mixing is a Kerker type mixing with AMIX =  0.4000 and BMIX =      1.0000
 Hartree-type preconditioning will be used
 using additional bands          168
 reciprocal scheme for non local part
 use partial core corrections
 calculate Harris-corrections to forces 
   (improved forces if not selfconsistent)
 use gradient corrections 
 use of overlap-Matrix (Vanderbilt PP)
 Fermi weights with tetrahedron method with Bloechl corrections


--------------------------------------------------------------------------------------------------------


  energy-cutoff  :      700.00
  volume of cell :     1148.44
      direct lattice vectors                 reciprocal lattice vectors
    10.502966000  0.000000000  0.330028000     0.095305301  0.000000000 -0.002994716
     0.000000000 10.526294000  0.000000000     0.000000000  0.095000197  0.000000000
     0.326730000  0.000000000 10.398015000    -0.003024944  0.000000000  0.096267253

  length of vectors
    10.508149850 10.526294000 10.403147045     0.095352340  0.095000197  0.096314767


 
 k-points in units of 2pi/SCALE and weight: Automatic mesh                          
   0.00000000  0.00000000  0.00000000       0.125
   0.04765265  0.00000000 -0.00149736       0.125
   0.00000000  0.04750010  0.00000000       0.125
   0.04765265  0.04750010 -0.00149736       0.125
  -0.00151247  0.00000000  0.04813363       0.125
   0.04614018  0.00000000  0.04663627       0.125
  -0.00151247  0.04750010  0.04813363       0.125
   0.04614018  0.04750010  0.04663627       0.125
 
 k-points in reciprocal lattice and weights: Automatic mesh                          
   0.00000000  0.00000000  0.00000000       0.125
   0.50000000  0.00000000 -0.00000000       0.125
   0.00000000  0.50000000  0.00000000       0.125
   0.50000000  0.50000000 -0.00000000       0.125
   0.00000000  0.00000000  0.50000000       0.125
   0.50000000  0.00000000  0.50000000       0.125
   0.00000000  0.50000000  0.50000000       0.125
   0.50000000  0.50000000  0.50000000       0.125
 
 position of ions in fractional coordinates (direct lattice) 
   0.12640900  0.12087100  0.12559000
   0.62640900  0.12087100  0.12559000
   0.12640900  0.62087100  0.12559000
   0.62640900  0.62087100  0.12559000
   0.37359100  0.37087100  0.12441000
   0.87359100  0.37087100  0.12441000
   0.37359100  0.87087100  0.12441000
   0.87359100  0.87087100  0.12441000
   0.12500000  0.37177700  0.87500000
   0.62500000  0.37177700  0.87500000
   0.12500000  0.87177700  0.87500000
   0.62500000  0.87177700  0.87500000
   0.37500000  0.12346800  0.87500000
   0.87500000  0.12346800  0.87500000
   0.37500000  0.62346800  0.87500000
   0.87500000  0.62346800  0.87500000
   0.12359100  0.12087100  0.62441000
   0.62359100  0.12087100  0.62441000
   0.12359100  0.62087100  0.62441000
   0.62359100  0.62087100  0.62441000
   0.37640900  0.37087100  0.62559000
   0.87640900  0.37087100  0.62559000
   0.37640900  0.87087100  0.62559000
   0.87640900  0.87087100  0.62559000
   0.37500000  0.12177700  0.37500000
   0.87500000  0.12177700  0.37500000
   0.37500000  0.62177700  0.37500000
   0.87500000  0.62177700  0.37500000
   0.12500000  0.37346800  0.37500000
   0.62500000  0.37346800  0.37500000
   0.12500000  0.87346800  0.37500000
   0.62500000  0.87346800  0.37500000
   0.99831400  0.00326800  0.50001500
   0.49831400  0.00326800  0.50001500
   0.99831400  0.50326800  0.50001500
   0.49831400  0.50326800  0.50001500
   0.25168600  0.00326800  0.24998500
   0.75168600  0.00326800  0.24998500
   0.25168600  0.50326800  0.24998500
   0.75168600  0.50326800  0.24998500
   0.24831400  0.25326800  0.00001500
   0.74831400  0.25326800  0.00001500
   0.24831400  0.75326800  0.00001500
   0.74831400  0.75326800  0.00001500
   0.00168600  0.25326800  0.74998500
   0.50168600  0.25326800  0.74998500
   0.00168600  0.75326800  0.74998500
   0.50168600  0.75326800  0.74998500
   0.99894700  0.00323800  0.00070400
   0.49894700  0.00323800  0.00070400
   0.99894700  0.50323800  0.00070400
   0.49894700  0.50323800  0.00070400
   0.25105300  0.00323800  0.74929600
   0.75105300  0.00323800  0.74929600
   0.25105300  0.50323800  0.74929600
   0.75105300  0.50323800  0.74929600
   0.24894700  0.25323800  0.50070400
   0.74894700  0.25323800  0.50070400
   0.24894700  0.75323800  0.50070400
   0.74894700  0.75323800  0.50070400
   0.00105300  0.25323800  0.24929600
   0.50105300  0.25323800  0.24929600
   0.00105300  0.75323800  0.24929600
   0.50105300  0.75323800  0.24929600
 
 position of ions in cartesian coordinates  (Angst):
   1.36870345  1.27232368  1.34760521
   6.62018645  1.27232368  1.51261921
   1.36870345  6.53547068  1.34760521
   6.62018645  6.53547068  1.51261921
   3.96446205  3.90389718  1.41691254
   9.21594505  3.90389718  1.58192654
   3.96446205  9.16704418  1.41691254
   9.21594505  9.16704418  1.58192654
   1.59875950  3.91343400  9.13951662
   6.85024250  3.91343400  9.30453062
   1.59875950  9.17658100  9.13951662
   6.85024250  9.17658100  9.30453062
   4.22450100  1.29966047  9.22202362
   9.47598400  1.29966047  9.38703762
   4.22450100  6.56280747  9.22202362
   9.47598400  6.56280747  9.38703762
   1.50208555  1.27232368  6.53341304
   6.75356855  1.27232368  6.69842704
   1.50208555  6.53547068  6.53341304
   6.75356855  6.53547068  6.69842704
   4.15780995  3.90389718  6.62911971
   9.40929295  3.90389718  6.79413371
   4.15780995  9.16704418  6.62911971
   9.40929295  9.16704418  6.79413371
   4.06113600  1.28186050  4.02301612
   9.31261900  1.28186050  4.18803012
   4.06113600  6.54500750  4.02301612
   9.31261900  6.54500750  4.18803012
   1.43539450  3.93123397  3.94050912
   6.68687750  3.93123397  4.10552312
   1.43539450  9.19438097  3.94050912
   6.68687750  9.19438097  4.10552312
  10.64862790  0.03439993  5.52863504
   5.39714490  0.03439993  5.36362104
  10.64862790  5.29754693  5.52863504
   5.39714490  5.29754693  5.36362104
   2.72512710  0.03439993  2.68241121
   7.97661010  0.03439993  2.84742521
   2.72512710  5.29754693  2.68241121
   7.97661010  5.29754693  2.84742521
   2.60803840  2.66597343  0.08210654
   7.85952140  2.66597343  0.24712054
   2.60803840  7.92912043  0.08210654
   7.85952140  7.92912043  0.24712054
   0.26275060  2.66597343  7.79891171
   5.51423360  2.66597343  7.96392571
   0.26275060  7.92912043  7.79891171
   5.51423360  7.92912043  7.96392571
  10.49213639  0.03408414  0.33700068
   5.24065339  0.03408414  0.17198668
  10.49213639  5.29723114  0.33700068
   5.24065339  5.29723114  0.17198668
   2.88161861  0.03408414  7.87404557
   8.13310161  0.03408414  8.03905957
   2.88161861  5.29723114  7.87404557
   8.13310161  5.29723114  8.03905957
   2.77827689  2.66565764  5.28848718
   8.02975989  2.66565764  5.45350118
   2.77827689  7.92880464  5.28848718
   8.02975989  7.92880464  5.45350118
   0.09251211  2.66565764  2.59253107
   5.34399511  2.66565764  2.75754507
   0.09251211  7.92880464  2.59253107
   5.34399511  7.92880464  2.75754507
 


--------------------------------------------------------------------------------------------------------


 k-point  1 :   0.0000 0.0000 0.0000  plane waves:   48265
 k-point  2 :   0.5000 0.0000-0.0000  plane waves:   48356
 k-point  3 :   0.0000 0.5000 0.0000  plane waves:   48318
 k-point  4 :   0.5000 0.5000-0.0000  plane waves:   48308
 k-point  5 :   0.0000 0.0000 0.5000  plane waves:   48326
 k-point  6 :   0.5000 0.0000 0.5000  plane waves:   48284
 k-point  7 :   0.0000 0.5000 0.5000  plane waves:   48300
 k-point  8 :   0.5000 0.5000 0.5000  plane waves:   48244

 maximum and minimum number of plane-waves per node :     48356    48244

 maximum number of plane-waves:     48356
 maximum index in each direction: 
   IXMAX=   22   IYMAX=   22   IZMAX=   22
   IXMIN=  -23   IYMIN=  -23   IZMIN=  -22


 serial   3D FFT for wavefunctions
 parallel 3D FFT for charge:
    minimum data exchange during FFTs selected (reduces bandwidth)


 total amount of memory used by VASP MPI-rank0   348353. kBytes
=======================================================================

   base      :      30000. kBytes
   nonl-proj :     216760. kBytes
   fftplans  :       4588. kBytes
   grid      :      69719. kBytes
   one-center:       1990. kBytes
   wavefun   :      25296. kBytes
 
     INWAV:  cpu time    0.0001: real time    0.0004
 Broyden mixing: mesh for mixing (old mesh)
   NGX = 45   NGY = 45   NGZ = 45
  (NGX  =192   NGY  =192   NGZ  =180)
  gives a total of  91125 points

 initial charge density was supplied:
 number of electron     687.9999938 magnetization      -0.0000000
 keeping initial charge density in first step


--------------------------------------------------------------------------------------------------------


 Maximum index for augmentation-charges          896 (set IRDMAX)


--------------------------------------------------------------------------------------------------------


 First call to EWALD:  gamma=   0.169
 Maximum number of real-space cells 3x 3x 3
 Maximum number of reciprocal cells 3x 3x 3

    FEWALD:  cpu time    0.0026: real time    0.0026


--------------------------------------- Iteration      1(   1)  ---------------------------------------


    POTLOK:  cpu time    0.3742: real time    0.4343
    SETDIJ:  cpu time    0.0143: real time    0.0144
     EDDAV:  cpu time   84.2105: real time   84.8970
 BZINTS: Fermi energy: 14.679653;688.000000 electrons
         Band energy:***********;  BLOECHL correction: -0.021648
       DOS:  cpu time    0.0410: real time    0.0413
    --------------------------------------------
      LOOP:  cpu time   84.6401: real time   85.3871

 eigenvalue-minimisations  : 16384
 total energy-change (2. order) : 0.6016171E+04  (-0.5181062E+05)
 number of electron     687.9999938 magnetization      -0.0000000
 augmentation part      687.9999938 magnetization      -0.0000000

 Free energy of the ion-electron system (eV)
  ---------------------------------------------------
  alpha Z        PSCENC =      2360.72151196
  Ewald energy   TEWEN  =    -62523.71942615
  -Hartree energ DENC   =    -42680.27384315
  -exchange      EXHF   =         0.00000000
  -V(xc)+E(xc)   XCENC  =      3279.54651915
  PAW double counting   =    112052.39469906  -115742.30158738
  entropy T*S    EENTRO =         0.00000000
  eigenvalues    EBANDS =     -4750.26234535
  atomic energy  EATOM  =    114020.06510763
  Solvation  Ediel_sol  =         0.00000000
  ---------------------------------------------------
  free energy    TOTEN  =      6016.17063577 eV

  energy without entropy =     6016.17063577  energy(sigma->0) =     6016.17063577


--------------------------------------------------------------------------------------------------------




--------------------------------------- Iteration      1(   2)  ---------------------------------------


     EDDAV:  cpu time  102.4201: real time  103.1847
 BZINTS: Fermi energy:  5.189723;688.000000 electrons
         Band energy:***********;  BLOECHL correction: -0.036907
       DOS:  cpu time    0.0347: real time    0.0349
    --------------------------------------------
      LOOP:  cpu time  102.4548: real time  103.2195

 eigenvalue-minimisations  : 18432
 total energy-change (2. order) :-0.6137908E+04  (-0.6031353E+04)
 number of electron     687.9999938 magnetization      -0.0000000
 augmentation part      687.9999938 magnetization      -0.0000000

 Free energy of the ion-electron system (eV)
  ---------------------------------------------------
  alpha Z        PSCENC =      2360.72151196
  Ewald energy   TEWEN  =    -62523.71942615
  -Hartree energ DENC   =    -42680.27384315
  -exchange      EXHF   =         0.00000000
  -V(xc)+E(xc)   XCENC  =      3279.54651915
  PAW double counting   =    112052.39469906  -115742.30158738
  entropy T*S    EENTRO =         0.00000000
  eigenvalues    EBANDS =    -10888.17081405
  atomic energy  EATOM  =    114020.06510763
  Solvation  Ediel_sol  =         0.00000000
  ---------------------------------------------------
  free energy    TOTEN  =      -121.73783293 eV

  energy without entropy =     -121.73783293  energy(sigma->0) =     -121.73783293


--------------------------------------------------------------------------------------------------------




--------------------------------------- Iteration      1(   3)  ---------------------------------------


     EDDAV:  cpu time  152.6414: real time  153.6900
 BZINTS: Fermi energy:  4.804899;688.000000 electrons
         Band energy:***********;  BLOECHL correction:  0.000000
       DOS:  cpu time    0.0072: real time    0.0072
    --------------------------------------------
      LOOP:  cpu time  152.6486: real time  153.6972

 eigenvalue-minimisations  : 22528
 total energy-change (2. order) :-0.2442606E+03  (-0.2435362E+03)
 number of electron     687.9999938 magnetization      -0.0000000
 augmentation part      687.9999938 magnetization      -0.0000000

 Free energy of the ion-electron system (eV)
  ---------------------------------------------------
  alpha Z        PSCENC =      2360.72151196
  Ewald energy   TEWEN  =    -62523.71942615
  -Hartree energ DENC   =    -42680.27384315
  -exchange      EXHF   =         0.00000000
  -V(xc)+E(xc)   XCENC  =      3279.54651915
  PAW double counting   =    112052.39469906  -115742.30158738
  entropy T*S    EENTRO =         0.00000000
  eigenvalues    EBANDS =    -11132.43143669
  atomic energy  EATOM  =    114020.06510763
  Solvation  Ediel_sol  =         0.00000000
  ---------------------------------------------------
  free energy    TOTEN  =      -365.99845557 eV

  energy without entropy =     -365.99845557  energy(sigma->0) =     -365.99845557


--------------------------------------------------------------------------------------------------------




--------------------------------------- Iteration      1(   4)  ---------------------------------------


     EDDAV:  cpu time  134.4629: real time  135.3914
 BZINTS: Fermi energy:  4.857359;688.000000 electrons
         Band energy:***********;  BLOECHL correction:  0.000000
       DOS:  cpu time    0.0071: real time    0.0071
    --------------------------------------------
      LOOP:  cpu time  134.4699: real time  135.3985

 eigenvalue-minimisations  : 20480
 total energy-change (2. order) :-0.3372902E+01  (-0.3372762E+01)
 number of electron     687.9999938 magnetization      -0.0000000
 augmentation part      687.9999938 magnetization      -0.0000000

 Free energy of the ion-electron system (eV)
  ---------------------------------------------------
  alpha Z        PSCENC =      2360.72151196
  Ewald energy   TEWEN  =    -62523.71942615
  -Hartree energ DENC   =    -42680.27384315
  -exchange      EXHF   =         0.00000000
  -V(xc)+E(xc)   XCENC  =      3279.54651915
  PAW double counting   =    112052.39469906  -115742.30158738
  entropy T*S    EENTRO =         0.00000000
  eigenvalues    EBANDS =    -11135.80433839
  atomic energy  EATOM  =    114020.06510763
  Solvation  Ediel_sol  =         0.00000000
  ---------------------------------------------------
  free energy    TOTEN  =      -369.37135727 eV

  energy without entropy =     -369.37135727  energy(sigma->0) =     -369.37135727


--------------------------------------------------------------------------------------------------------




--------------------------------------- Iteration      1(   5)  ---------------------------------------


     EDDAV:  cpu time  136.1661: real time  137.1130
 BZINTS: Fermi energy:  4.887226;688.000000 electrons
         Band energy:***********;  BLOECHL correction:  0.000000
       DOS:  cpu time    0.0061: real time    0.0061
    CHARGE:  cpu time    1.4620: real time    1.4721
    MIXING:  cpu time    0.0057: real time    0.0058
    --------------------------------------------
      LOOP:  cpu time  137.6399: real time  138.5970

 eigenvalue-minimisations  : 20736
 total energy-change (2. order) :-0.1069254E+00  (-0.1069250E+00)
 number of electron     688.0000044 magnetization      -0.0000000
 augmentation part      285.8643195 magnetization      -0.0000000

 Broyden mixing:
  rms(total) = 0.50401E+01    rms(broyden)= 0.50395E+01
  rms(prec ) = 0.56601E+01
  weight for this iteration     100.00

 Free energy of the ion-electron system (eV)
  ---------------------------------------------------
  alpha Z        PSCENC =      2360.72151196
  Ewald energy   TEWEN  =    -62523.71942615
  -Hartree energ DENC   =    -42680.27384315
  -exchange      EXHF   =         0.00000000
  -V(xc)+E(xc)   XCENC  =      3279.54651915
  PAW double counting   =    112052.39469906  -115742.30158738
  entropy T*S    EENTRO =         0.00000000
  eigenvalues    EBANDS =    -11135.91126384
  atomic energy  EATOM  =    114020.06510763
  Solvation  Ediel_sol  =         0.00000000
  ---------------------------------------------------
  free energy    TOTEN  =      -369.47828272 eV

  energy without entropy =     -369.47828272  energy(sigma->0) =     -369.47828272


--------------------------------------------------------------------------------------------------------




--------------------------------------- Iteration      1(   6)  ---------------------------------------


    POTLOK:  cpu time    0.1275: real time    0.1325
    SETDIJ:  cpu time    0.0131: real time    0.0132
     EDDAV:  cpu time  181.1777: real time  182.3977
 BZINTS: Fermi energy:  5.154930;688.000000 electrons
         Band energy:***********;  BLOECHL correction:  0.000000
       DOS:  cpu time    0.0061: real time    0.0061
    CHARGE:  cpu time    1.4615: real time    1.4714
    MIXING:  cpu time    0.0022: real time    0.0367
    --------------------------------------------
      LOOP:  cpu time  182.7882: real time  184.0577

 eigenvalue-minimisations  : 26112
 total energy-change (2. order) : 0.3130707E+02  (-0.4291819E+01)
 number of electron     688.0000042 magnetization      -0.0000000
 augmentation part      279.8136362 magnetization      -0.0000000

 Broyden mixing:
  rms(total) = 0.28995E+01    rms(broyden)= 0.28995E+01
  rms(prec ) = 0.32315E+01
  weight for this iteration     100.00

 eigenvalues of (default mixing * dielectric matrix)
  average eigenvalue GAMMA=   0.7304
  0.7304

 Free energy of the ion-electron system (eV)
  ---------------------------------------------------
  alpha Z        PSCENC =      2360.72151196
  Ewald energy   TEWEN  =    -62523.71942615
  -Hartree energ DENC   =    -43025.82733971
  -exchange      EXHF   =         0.00000000
  -V(xc)+E(xc)   XCENC  =      3288.15690607
  PAW double counting   =    115469.98146514  -119203.27325441
  entropy T*S    EENTRO =         0.00000000
  eigenvalues    EBANDS =    -10724.27618786
  atomic energy  EATOM  =    114020.06510763
  Solvation  Ediel_sol  =         0.00000000
  ---------------------------------------------------
  free energy    TOTEN  =      -338.17121734 eV

  energy without entropy =     -338.17121734  energy(sigma->0) =     -338.17121734


--------------------------------------------------------------------------------------------------------




--------------------------------------- Iteration      1(   7)  ---------------------------------------


    POTLOK:  cpu time    0.1302: real time    0.1323
    SETDIJ:  cpu time    0.0130: real time    0.0130
     EDDAV:  cpu time  126.5804: real time  127.4773
 BZINTS: Fermi energy:  4.875960;688.000000 electrons
         Band energy:***********;  BLOECHL correction:  0.000000
       DOS:  cpu time    0.0060: real time    0.0061
    CHARGE:  cpu time    1.4605: real time    1.4702
    MIXING:  cpu time    0.0015: real time    0.0039
    --------------------------------------------
      LOOP:  cpu time  128.1916: real time  129.1027

 eigenvalue-minimisations  : 20480
 total energy-change (2. order) : 0.8418760E+01  (-0.2164568E+01)
 number of electron     688.0000043 magnetization      -0.0000000
 augmentation part      283.4787425 magnetization      -0.0000000

 Broyden mixing:
  rms(total) = 0.22693E+01    rms(broyden)= 0.22692E+01
  rms(prec ) = 0.23874E+01
  weight for this iteration     100.00

 eigenvalues of (default mixing * dielectric matrix)
  average eigenvalue GAMMA=   0.8684
  1.2651  0.4717

 Free energy of the ion-electron system (eV)
  ---------------------------------------------------
  alpha Z        PSCENC =      2360.72151196
  Ewald energy   TEWEN  =    -62523.71942615
  -Hartree energ DENC   =    -42831.30568515
  -exchange      EXHF   =         0.00000000
  -V(xc)+E(xc)   XCENC  =      3285.06745803
  PAW double counting   =    114710.14266961  -118393.81770808
  entropy T*S    EENTRO =         0.00000000
  eigenvalues    EBANDS =    -10956.90638469
  atomic energy  EATOM  =    114020.06510763
  Solvation  Ediel_sol  =         0.00000000
  ---------------------------------------------------
  free energy    TOTEN  =      -329.75245684 eV

  energy without entropy =     -329.75245684  energy(sigma->0) =     -329.75245684


--------------------------------------------------------------------------------------------------------




--------------------------------------- Iteration      1(   8)  ---------------------------------------


    POTLOK:  cpu time    0.1289: real time    0.1325
    SETDIJ:  cpu time    0.0130: real time    0.0131
     EDDAV:  cpu time  165.7542: real time  166.8637
 BZINTS: Fermi energy:  4.907511;688.000000 electrons
         Band energy:***********;  BLOECHL correction:  0.000000
       DOS:  cpu time    0.0060: real time    0.0060
    CHARGE:  cpu time    1.4626: real time    1.4714
    MIXING:  cpu time    0.0014: real time    0.0014
    --------------------------------------------
      LOOP:  cpu time  167.3661: real time  168.4881

 eigenvalue-minimisations  : 23552
 total energy-change (2. order) : 0.1928490E+01  (-0.7827459E+00)
 number of electron     688.0000044 magnetization      -0.0000000
 augmentation part      283.2334615 magnetization      -0.0000000

 Broyden mixing:
  rms(total) = 0.80308E+00    rms(broyden)= 0.80307E+00
  rms(prec ) = 0.85889E+00
  weight for this iteration     100.00

 eigenvalues of (default mixing * dielectric matrix)
  average eigenvalue GAMMA=   1.0138
  1.8407  0.6928  0.5079

 Free energy of the ion-electron system (eV)
  ---------------------------------------------------
  alpha Z        PSCENC =      2360.72151196
  Ewald energy   TEWEN  =    -62523.71942615
  -Hartree energ DENC   =    -42861.93493475
  -exchange      EXHF   =         0.00000000
  -V(xc)+E(xc)   XCENC  =      3285.31592179
  PAW double counting   =    113892.61693864  -117581.85528088
  entropy T*S    EENTRO =         0.00000000
  eigenvalues    EBANDS =    -10919.03380533
  atomic energy  EATOM  =    114020.06510763
  Solvation  Ediel_sol  =         0.00000000
  ---------------------------------------------------
  free energy    TOTEN  =      -327.82396709 eV

  energy without entropy =     -327.82396709  energy(sigma->0) =     -327.82396709


--------------------------------------------------------------------------------------------------------




--------------------------------------- Iteration      1(   9)  ---------------------------------------


    POTLOK:  cpu time    0.1296: real time    0.1319
    SETDIJ:  cpu time    0.0130: real time    0.0130
     EDDAV:  cpu time  160.8781: real time  161.9633
 BZINTS: Fermi energy:  4.960293;688.000000 electrons
         Band energy:***********;  BLOECHL correction:  0.000000
       DOS:  cpu time    0.0059: real time    0.0059
    CHARGE:  cpu time    1.4607: real time    1.4705
    MIXING:  cpu time    0.0012: real time    0.0012
    --------------------------------------------
      LOOP:  cpu time  162.4885: real time  163.5860

 eigenvalue-minimisations  : 23296
 total energy-change (2. order) : 0.2015602E+00  (-0.2215016E+00)
 number of electron     688.0000043 magnetization       0.0000000
 augmentation part      281.9893618 magnetization       0.0000000

 Broyden mixing:
  rms(total) = 0.41274E+00    rms(broyden)= 0.41273E+00
  rms(prec ) = 0.44348E+00
  weight for this iteration     100.00

 eigenvalues of (default mixing * dielectric matrix)
  average eigenvalue GAMMA=   1.0642
  1.8029  1.2873  0.6397  0.5272

 Free energy of the ion-electron system (eV)
  ---------------------------------------------------
  alpha Z        PSCENC =      2360.72151196
  Ewald energy   TEWEN  =    -62523.71942615
  -Hartree energ DENC   =    -42941.74789481
  -exchange      EXHF   =         0.00000000
  -V(xc)+E(xc)   XCENC  =      3287.25546704
  PAW double counting   =    113510.89098772  -117208.58515686
  entropy T*S    EENTRO =         0.00000000
  eigenvalues    EBANDS =    -10832.50300346
  atomic energy  EATOM  =    114020.06510763
  Solvation  Ediel_sol  =         0.00000000
  ---------------------------------------------------
  free energy    TOTEN  =      -327.62240694 eV

  energy without entropy =     -327.62240694  energy(sigma->0) =     -327.62240694


--------------------------------------------------------------------------------------------------------




--------------------------------------- Iteration      1(  10)  ---------------------------------------


    POTLOK:  cpu time    0.1287: real time    0.1332
    SETDIJ:  cpu time    0.0129: real time    0.0130
     EDDAV:  cpu time  163.6595: real time  164.7534
 BZINTS: Fermi energy:  4.915060;688.000000 electrons
         Band energy:***********;  BLOECHL correction:  0.000000
       DOS:  cpu time    0.0060: real time    0.0060
    CHARGE:  cpu time    1.4607: real time    1.4705
    MIXING:  cpu time    0.0017: real time    0.0031
    --------------------------------------------
      LOOP:  cpu time  165.2694: real time  166.3792

 eigenvalue-minimisations  : 23040
 total energy-change (2. order) :-0.1388992E+00  (-0.2432742E+00)
 number of electron     688.0000044 magnetization       0.0000000
 augmentation part      282.1102561 magnetization       0.0000000

 Broyden mixing:
  rms(total) = 0.50582E+00    rms(broyden)= 0.50581E+00
  rms(prec ) = 0.60052E+00
  weight for this iteration     100.00

 eigenvalues of (default mixing * dielectric matrix)
  average eigenvalue GAMMA=   0.9550
  1.8554  1.4375  0.5868  0.5868  0.3084

 Free energy of the ion-electron system (eV)
  ---------------------------------------------------
  alpha Z        PSCENC =      2360.72151196
  Ewald energy   TEWEN  =    -62523.71942615
  -Hartree energ DENC   =    -42910.12823386
  -exchange      EXHF   =         0.00000000
  -V(xc)+E(xc)   XCENC  =      3285.89361063
  PAW double counting   =    112997.35723224  -116689.63541018
  entropy T*S    EENTRO =         0.00000000
  eigenvalues    EBANDS =    -10868.31569836
  atomic energy  EATOM  =    114020.06510763
  Solvation  Ediel_sol  =         0.00000000
  ---------------------------------------------------
  free energy    TOTEN  =      -327.76130609 eV

  energy without entropy =     -327.76130609  energy(sigma->0) =     -327.76130609


--------------------------------------------------------------------------------------------------------




--------------------------------------- Iteration      1(  11)  ---------------------------------------


    POTLOK:  cpu time    0.1312: real time    0.1322
    SETDIJ:  cpu time    0.0131: real time    0.0131
     EDDAV:  cpu time  125.9713: real time  126.8549
 BZINTS: Fermi energy:  4.936341;688.000000 electrons
         Band energy:***********;  BLOECHL correction:  0.000000
       DOS:  cpu time    0.0060: real time    0.0060
    CHARGE:  cpu time    1.4624: real time    1.4723
    MIXING:  cpu time    0.0014: real time    0.0014
    --------------------------------------------
      LOOP:  cpu time  127.5853: real time  128.4800

 eigenvalue-minimisations  : 20224
 total energy-change (2. order) : 0.1025657E+00  (-0.9369321E-01)
 number of electron     688.0000044 magnetization       0.0000000
 augmentation part      282.2387130 magnetization       0.0000000

 Broyden mixing:
  rms(total) = 0.15192E+00    rms(broyden)= 0.15191E+00
  rms(prec ) = 0.15662E+00
  weight for this iteration     100.00

 eigenvalues of (default mixing * dielectric matrix)
  average eigenvalue GAMMA=   1.0749
  2.0586  2.0586  0.7468  0.6207  0.6207  0.3441

 Free energy of the ion-electron system (eV)
  ---------------------------------------------------
  alpha Z        PSCENC =      2360.72151196
  Ewald energy   TEWEN  =    -62523.71942615
  -Hartree energ DENC   =    -42916.19408653
  -exchange      EXHF   =         0.00000000
  -V(xc)+E(xc)   XCENC  =      3286.48626482
  PAW double counting   =    112753.43075570  -116445.31951243
  entropy T*S    EENTRO =         0.00000000
  eigenvalues    EBANDS =    -10863.12935536
  atomic energy  EATOM  =    114020.06510763
  Solvation  Ediel_sol  =         0.00000000
  ---------------------------------------------------
  free energy    TOTEN  =      -327.65874036 eV

  energy without entropy =     -327.65874036  energy(sigma->0) =     -327.65874036


--------------------------------------------------------------------------------------------------------




--------------------------------------- Iteration      1(  12)  ---------------------------------------


    POTLOK:  cpu time    0.1310: real time    0.1328
    SETDIJ:  cpu time    0.0132: real time    0.0132
     EDDAV:  cpu time  162.6623: real time  163.7619
 BZINTS: Fermi energy:  4.938968;688.000000 electrons
         Band energy:***********;  BLOECHL correction:  0.000000
       DOS:  cpu time    0.0060: real time    0.0060
    CHARGE:  cpu time    1.4607: real time    1.4707
    MIXING:  cpu time    0.0015: real time    0.0015
    --------------------------------------------
      LOOP:  cpu time  164.2747: real time  165.3863

 eigenvalue-minimisations  : 23552
 total energy-change (2. order) :-0.2856671E-01  (-0.9838201E-02)
 number of electron     688.0000044 magnetization       0.0000000
 augmentation part      282.2232542 magnetization       0.0000000

 Broyden mixing:
  rms(total) = 0.63494E-01    rms(broyden)= 0.63489E-01
  rms(prec ) = 0.67548E-01
  weight for this iteration     100.00

 eigenvalues of (default mixing * dielectric matrix)
  average eigenvalue GAMMA=   1.1159
  2.2339  2.2339  1.0567  0.6947  0.6230  0.6230  0.3462

 Free energy of the ion-electron system (eV)
  ---------------------------------------------------
  alpha Z        PSCENC =      2360.72151196
  Ewald energy   TEWEN  =    -62523.71942615
  -Hartree energ DENC   =    -42919.67413360
  -exchange      EXHF   =         0.00000000
  -V(xc)+E(xc)   XCENC  =      3286.58689189
  PAW double counting   =    112445.28793338  -116138.44167553
  entropy T*S    EENTRO =         0.00000000
  eigenvalues    EBANDS =    -10858.51351663
  atomic energy  EATOM  =    114020.06510763
  Solvation  Ediel_sol  =         0.00000000
  ---------------------------------------------------
  free energy    TOTEN  =      -327.68730707 eV

  energy without entropy =     -327.68730707  energy(sigma->0) =     -327.68730707


--------------------------------------------------------------------------------------------------------




--------------------------------------- Iteration      1(  13)  ---------------------------------------


    POTLOK:  cpu time    0.1310: real time    0.1320
    SETDIJ:  cpu time    0.0131: real time    0.0132
     EDDAV:  cpu time  146.8835: real time  147.8851
 BZINTS: Fermi energy:  4.938041;688.000000 electrons
         Band energy:***********;  BLOECHL correction:  0.000000
       DOS:  cpu time    0.0059: real time    0.0060
    CHARGE:  cpu time    1.4639: real time    1.4740
    MIXING:  cpu time    0.0016: real time    0.0016
    --------------------------------------------
      LOOP:  cpu time  148.4990: real time  149.5118

 eigenvalue-minimisations  : 21504
 total energy-change (2. order) :-0.7470273E-02  (-0.2303598E-02)
 number of electron     688.0000044 magnetization       0.0000000
 augmentation part      282.2387050 magnetization       0.0000000

 Broyden mixing:
  rms(total) = 0.33482E-01    rms(broyden)= 0.33481E-01
  rms(prec ) = 0.35931E-01
  weight for this iteration     100.00

 eigenvalues of (default mixing * dielectric matrix)
  average eigenvalue GAMMA=   1.1367
  2.3162  2.3162  1.3262  0.9301  0.5948  0.5948  0.6674  0.3476

 Free energy of the ion-electron system (eV)
  ---------------------------------------------------
  alpha Z        PSCENC =      2360.72151196
  Ewald energy   TEWEN  =    -62523.71942615
  -Hartree energ DENC   =    -42917.97301247
  -exchange      EXHF   =         0.00000000
  -V(xc)+E(xc)   XCENC  =      3286.55828358
  PAW double counting   =    112299.87118329  -115992.83496018
  entropy T*S    EENTRO =         0.00000000
  eigenvalues    EBANDS =    -10860.38346500
  atomic energy  EATOM  =    114020.06510763
  Solvation  Ediel_sol  =         0.00000000
  ---------------------------------------------------
  free energy    TOTEN  =      -327.69477734 eV

  energy without entropy =     -327.69477734  energy(sigma->0) =     -327.69477734


--------------------------------------------------------------------------------------------------------




--------------------------------------- Iteration      1(  14)  ---------------------------------------


    POTLOK:  cpu time    0.1281: real time    0.1325
    SETDIJ:  cpu time    0.0130: real time    0.0130
     EDDAV:  cpu time  141.3475: real time  142.3226
 BZINTS: Fermi energy:  4.938927;688.000000 electrons
         Band energy:***********;  BLOECHL correction:  0.000000
       DOS:  cpu time    0.0060: real time    0.0060
    CHARGE:  cpu time    1.4628: real time    1.4726
    MIXING:  cpu time    0.0018: real time    0.0018
    --------------------------------------------
      LOOP:  cpu time  142.9591: real time  143.9485

 eigenvalue-minimisations  : 20992
 total energy-change (2. order) :-0.2388562E-02  (-0.6252550E-03)
 number of electron     688.0000044 magnetization       0.0000000
 augmentation part      282.2306790 magnetization       0.0000000

 Broyden mixing:
  rms(total) = 0.16670E-01    rms(broyden)= 0.16668E-01
  rms(prec ) = 0.17710E-01
  weight for this iteration     100.00

 eigenvalues of (default mixing * dielectric matrix)
  average eigenvalue GAMMA=   1.1652
  2.4097  2.4097  1.3704  1.3704  0.3474  0.6022  0.6022  0.7274  0.6474

 Free energy of the ion-electron system (eV)
  ---------------------------------------------------
  alpha Z        PSCENC =      2360.72151196
  Ewald energy   TEWEN  =    -62523.71942615
  -Hartree energ DENC   =    -42919.11842502
  -exchange      EXHF   =         0.00000000
  -V(xc)+E(xc)   XCENC  =      3286.59358385
  PAW double counting   =    112268.71502668  -115962.17618790
  entropy T*S    EENTRO =         0.00000000
  eigenvalues    EBANDS =    -10858.77835694
  atomic energy  EATOM  =    114020.06510763
  Solvation  Ediel_sol  =         0.00000000
  ---------------------------------------------------
  free energy    TOTEN  =      -327.69716590 eV

  energy without entropy =     -327.69716590  energy(sigma->0) =     -327.69716590


--------------------------------------------------------------------------------------------------------




--------------------------------------- Iteration      1(  15)  ---------------------------------------


    POTLOK:  cpu time    0.1306: real time    0.1340
    SETDIJ:  cpu time    0.0130: real time    0.0130
     EDDAV:  cpu time  175.8279: real time  176.9935
 BZINTS: Fermi energy:  4.939219;688.000000 electrons
         Band energy:***********;  BLOECHL correction:  0.000000
       DOS:  cpu time    0.0060: real time    0.0060
    CHARGE:  cpu time    1.4629: real time    1.4729
    MIXING:  cpu time    0.0018: real time    0.0018
    --------------------------------------------
      LOOP:  cpu time  177.4421: real time  178.6212

 eigenvalue-minimisations  : 24576
 total energy-change (2. order) :-0.1057962E-02  (-0.2472843E-03)
 number of electron     688.0000044 magnetization       0.0000000
 augmentation part      282.2244087 magnetization       0.0000000

 Broyden mixing:
  rms(total) = 0.96282E-02    rms(broyden)= 0.96272E-02
  rms(prec ) = 0.10206E-01
  weight for this iteration     100.00

 eigenvalues of (default mixing * dielectric matrix)
  average eigenvalue GAMMA=   1.2156
  2.8618  2.2692  1.8391  1.1528  1.1528  0.3474  0.5996  0.5996  0.7042  0.6295

 Free energy of the ion-electron system (eV)
  ---------------------------------------------------
  alpha Z        PSCENC =      2360.72151196
  Ewald energy   TEWEN  =    -62523.71942615
  -Hartree energ DENC   =    -42919.40208346
  -exchange      EXHF   =         0.00000000
  -V(xc)+E(xc)   XCENC  =      3286.59243325
  PAW double counting   =    112264.24933536  -115957.73126352
  entropy T*S    EENTRO =         0.00000000
  eigenvalues    EBANDS =    -10858.47383893
  atomic energy  EATOM  =    114020.06510763
  Solvation  Ediel_sol  =         0.00000000
  ---------------------------------------------------
  free energy    TOTEN  =      -327.69822386 eV

  energy without entropy =     -327.69822386  energy(sigma->0) =     -327.69822386


--------------------------------------------------------------------------------------------------------




--------------------------------------- Iteration      1(  16)  ---------------------------------------


    POTLOK:  cpu time    0.1319: real time    0.1338
    SETDIJ:  cpu time    0.0131: real time    0.0132
     EDDAV:  cpu time  145.4749: real time  146.4565
 BZINTS: Fermi energy:  4.939272;688.000000 electrons
         Band energy:***********;  BLOECHL correction:  0.000000
       DOS:  cpu time    0.0060: real time    0.0060
    CHARGE:  cpu time    1.4612: real time    1.4712
    MIXING:  cpu time    0.0019: real time    0.0027
    --------------------------------------------
      LOOP:  cpu time  147.0889: real time  148.0833

 eigenvalue-minimisations  : 20992
 total energy-change (2. order) :-0.5826788E-03  (-0.1949689E-03)
 number of electron     688.0000044 magnetization       0.0000000
 augmentation part      282.2309567 magnetization       0.0000000

 Broyden mixing:
  rms(total) = 0.59423E-02    rms(broyden)= 0.59413E-02
  rms(prec ) = 0.64296E-02
  weight for this iteration     100.00

 eigenvalues of (default mixing * dielectric matrix)
  average eigenvalue GAMMA=   1.2835
  3.3678  2.1848  2.1848  1.3307  1.3307  0.3474  0.8439  0.5975  0.5975  0.7132
  0.6206

 Free energy of the ion-electron system (eV)
  ---------------------------------------------------
  alpha Z        PSCENC =      2360.72151196
  Ewald energy   TEWEN  =    -62523.71942615
  -Hartree energ DENC   =    -42919.14270860
  -exchange      EXHF   =         0.00000000
  -V(xc)+E(xc)   XCENC  =      3286.59002414
  PAW double counting   =    112259.65451032  -115953.11330691
  entropy T*S    EENTRO =         0.00000000
  eigenvalues    EBANDS =    -10858.75451892
  atomic energy  EATOM  =    114020.06510763
  Solvation  Ediel_sol  =         0.00000000
  ---------------------------------------------------
  free energy    TOTEN  =      -327.69880654 eV

  energy without entropy =     -327.69880654  energy(sigma->0) =     -327.69880654


--------------------------------------------------------------------------------------------------------




--------------------------------------- Iteration      1(  17)  ---------------------------------------


    POTLOK:  cpu time    0.1310: real time    0.1322
    SETDIJ:  cpu time    0.0130: real time    0.0130
     EDDAV:  cpu time  137.1525: real time  138.0912
 BZINTS: Fermi energy:  4.939152;688.000000 electrons
         Band energy:***********;  BLOECHL correction:  0.000000
       DOS:  cpu time    0.0059: real time    0.0060
    CHARGE:  cpu time    1.4715: real time    1.4817
    MIXING:  cpu time    0.0017: real time    0.0017
    --------------------------------------------
      LOOP:  cpu time  138.7756: real time  139.7258

 eigenvalue-minimisations  : 20480
 total energy-change (2. order) :-0.1877459E-03  (-0.9619974E-04)
 number of electron     688.0000044 magnetization       0.0000000
 augmentation part      282.2286274 magnetization       0.0000000

 Broyden mixing:
  rms(total) = 0.31277E-02    rms(broyden)= 0.31266E-02
  rms(prec ) = 0.33637E-02
  weight for this iteration     100.00

 eigenvalues of (default mixing * dielectric matrix)
  average eigenvalue GAMMA=   1.3450
  3.9636  2.3297  2.3297  1.4828  1.4828  0.9560  0.3474  0.5980  0.5980  0.7364
  0.6996  0.6163

 Free energy of the ion-electron system (eV)
  ---------------------------------------------------
  alpha Z        PSCENC =      2360.72151196
  Ewald energy   TEWEN  =    -62523.71942615
  -Hartree energ DENC   =    -42919.18336156
  -exchange      EXHF   =         0.00000000
  -V(xc)+E(xc)   XCENC  =      3286.58884749
  PAW double counting   =    112265.63107713  -115959.10681822
  entropy T*S    EENTRO =         0.00000000
  eigenvalues    EBANDS =    -10858.69593257
  atomic energy  EATOM  =    114020.06510763
  Solvation  Ediel_sol  =         0.00000000
  ---------------------------------------------------
  free energy    TOTEN  =      -327.69899429 eV

  energy without entropy =     -327.69899429  energy(sigma->0) =     -327.69899429


--------------------------------------------------------------------------------------------------------




--------------------------------------- Iteration      1(  18)  ---------------------------------------


    POTLOK:  cpu time    0.1293: real time    0.1328
    SETDIJ:  cpu time    0.0130: real time    0.0131
     EDDAV:  cpu time  150.0630: real time  151.0656
 BZINTS: Fermi energy:  4.939163;688.000000 electrons
         Band energy:***********;  BLOECHL correction:  0.000000
       DOS:  cpu time    0.0060: real time    0.0060
    CHARGE:  cpu time    1.4636: real time    1.4734
    MIXING:  cpu time    0.0020: real time    0.0020
    --------------------------------------------
      LOOP:  cpu time  151.6769: real time  152.6928

 eigenvalue-minimisations  : 21504
 total energy-change (2. order) :-0.3333177E-04  (-0.1868537E-04)
 number of electron     688.0000044 magnetization       0.0000000
 augmentation part      282.2288377 magnetization       0.0000000

 Broyden mixing:
  rms(total) = 0.13831E-02    rms(broyden)= 0.13824E-02
  rms(prec ) = 0.14798E-02
  weight for this iteration     100.00

 eigenvalues of (default mixing * dielectric matrix)
  average eigenvalue GAMMA=   1.3551
  4.1073  2.4245  2.4245  1.8129  1.1972  1.1972  0.9188  0.3474  0.5978  0.5978
  0.7195  0.6126  0.6584

 Free energy of the ion-electron system (eV)
  ---------------------------------------------------
  alpha Z        PSCENC =      2360.72151196
  Ewald energy   TEWEN  =    -62523.71942615
  -Hartree energ DENC   =    -42919.19369186
  -exchange      EXHF   =         0.00000000
  -V(xc)+E(xc)   XCENC  =      3286.58882732
  PAW double counting   =    112269.73173127  -115963.19917602
  entropy T*S    EENTRO =         0.00000000
  eigenvalues    EBANDS =    -10858.69391177
  atomic energy  EATOM  =    114020.06510763
  Solvation  Ediel_sol  =         0.00000000
  ---------------------------------------------------
  free energy    TOTEN  =      -327.69902762 eV

  energy without entropy =     -327.69902762  energy(sigma->0) =     -327.69902762


--------------------------------------------------------------------------------------------------------




--------------------------------------- Iteration      1(  19)  ---------------------------------------


    POTLOK:  cpu time    0.1316: real time    0.1325
    SETDIJ:  cpu time    0.0130: real time    0.0131
     EDDAV:  cpu time  137.4318: real time  138.3672
 BZINTS: Fermi energy:  4.939176;688.000000 electrons
         Band energy:***********;  BLOECHL correction:  0.000000
       DOS:  cpu time    0.0060: real time    0.0060
    CHARGE:  cpu time    1.4683: real time    1.4769
    MIXING:  cpu time    0.0021: real time    0.0021
    --------------------------------------------
      LOOP:  cpu time  139.0529: real time  139.9979

 eigenvalue-minimisations  : 20480
 total energy-change (2. order) :-0.5472917E-05  (-0.2430930E-05)
 number of electron     688.0000044 magnetization       0.0000000
 augmentation part      282.2284021 magnetization       0.0000000

 Broyden mixing:
[...]
   -.410E+02 0.235E+02 -.132E+01   0.419E+02 -.236E+02 0.133E+01   -.847E+00 0.138E+00 -.149E-01   0.163E-04 0.153E-05 -.103E-05
   -.410E+02 0.235E+02 -.132E+01   0.419E+02 -.236E+02 0.133E+01   -.847E+00 0.138E+00 -.149E-01   0.163E-04 0.153E-05 -.103E-05
   -.410E+02 0.235E+02 -.132E+01   0.419E+02 -.236E+02 0.133E+01   -.847E+00 0.138E+00 -.149E-01   0.163E-04 0.151E-05 -.103E-05
   -.410E+02 0.235E+02 -.132E+01   0.419E+02 -.236E+02 0.133E+01   -.847E+00 0.138E+00 -.149E-01   0.163E-04 0.151E-05 -.103E-05
   0.410E+02 0.235E+02 0.132E+01   -.419E+02 -.236E+02 -.133E+01   0.847E+00 0.138E+00 0.149E-01   -.163E-04 0.152E-05 0.103E-05
   0.410E+02 0.235E+02 0.132E+01   -.419E+02 -.236E+02 -.133E+01   0.847E+00 0.138E+00 0.149E-01   -.163E-04 0.152E-05 0.103E-05
   0.410E+02 0.235E+02 0.132E+01   -.419E+02 -.236E+02 -.133E+01   0.847E+00 0.138E+00 0.149E-01   -.163E-04 0.152E-05 0.103E-05
   0.410E+02 0.235E+02 0.132E+01   -.419E+02 -.236E+02 -.133E+01   0.847E+00 0.138E+00 0.149E-01   -.163E-04 0.152E-05 0.103E-05
   -.229E-07 -.272E+02 -.163E-06   -.426E-13 0.280E+02 0.711E-13   -.646E-26 -.748E+00 -.620E-24   -.817E-10 0.181E-04 -.764E-09
   -.229E-07 -.272E+02 -.163E-06   -.142E-13 0.280E+02 0.817E-13   0.244E-23 -.748E+00 0.620E-24   0.793E-10 0.181E-04 0.762E-09
   -.229E-07 -.272E+02 -.163E-06   -.568E-13 0.280E+02 0.711E-13   0.456E-24 -.748E+00 0.000E+00   -.818E-10 0.181E-04 -.764E-09
   -.229E-07 -.272E+02 -.163E-06   -.426E-13 0.280E+02 0.675E-13   -.185E-23 -.748E+00 -.103E-24   0.796E-10 0.181E-04 0.762E-09
   0.779E-08 0.586E+02 0.221E-06   0.178E-13 -.596E+02 -.139E-12   0.291E-25 0.976E+00 0.000E+00   0.118E-07 -.112E-04 -.369E-09
   0.779E-08 0.586E+02 0.221E-06   0.320E-13 -.596E+02 -.131E-12   -.676E-24 0.976E+00 -.284E-24   -.118E-07 -.112E-04 0.367E-09
   0.779E-08 0.586E+02 0.221E-06   0.284E-13 -.596E+02 -.639E-13   0.187E-24 0.976E+00 0.103E-24   0.118E-07 -.112E-04 -.369E-09
   0.779E-08 0.586E+02 0.221E-06   0.284E-13 -.596E+02 -.284E-13   0.584E-24 0.976E+00 -.208E-24   -.118E-07 -.112E-04 0.367E-09
   0.349E+01 -.212E+02 0.320E+01   -.345E+01 0.204E+02 -.327E+01   -.322E-01 0.844E+00 0.600E-01   -.670E-05 0.486E-04 0.535E-05
   0.349E+01 -.212E+02 0.320E+01   -.345E+01 0.204E+02 -.327E+01   -.322E-01 0.844E+00 0.600E-01   -.675E-05 0.486E-04 0.535E-05
   0.349E+01 -.212E+02 0.320E+01   -.345E+01 0.204E+02 -.327E+01   -.322E-01 0.844E+00 0.600E-01   -.670E-05 0.485E-04 0.535E-05
   0.349E+01 -.212E+02 0.320E+01   -.345E+01 0.204E+02 -.327E+01   -.322E-01 0.844E+00 0.600E-01   -.675E-05 0.485E-04 0.535E-05
   -.349E+01 -.212E+02 -.320E+01   0.345E+01 0.204E+02 0.327E+01   0.322E-01 0.844E+00 -.600E-01   0.675E-05 0.486E-04 -.535E-05
   -.349E+01 -.212E+02 -.320E+01   0.345E+01 0.204E+02 0.327E+01   0.322E-01 0.844E+00 -.600E-01   0.670E-05 0.486E-04 -.535E-05
   -.349E+01 -.212E+02 -.320E+01   0.345E+01 0.204E+02 0.327E+01   0.322E-01 0.844E+00 -.600E-01   0.675E-05 0.485E-04 -.535E-05
   -.349E+01 -.212E+02 -.320E+01   0.345E+01 0.204E+02 0.327E+01   0.322E-01 0.844E+00 -.600E-01   0.670E-05 0.485E-04 -.535E-05
   0.349E+01 -.212E+02 0.320E+01   -.345E+01 0.204E+02 -.327E+01   -.322E-01 0.844E+00 0.600E-01   -.669E-05 0.486E-04 0.535E-05
   0.349E+01 -.212E+02 0.320E+01   -.345E+01 0.204E+02 -.327E+01   -.322E-01 0.844E+00 0.600E-01   -.675E-05 0.486E-04 0.535E-05
   0.349E+01 -.212E+02 0.320E+01   -.345E+01 0.204E+02 -.327E+01   -.322E-01 0.844E+00 0.600E-01   -.669E-05 0.485E-04 0.535E-05
   0.349E+01 -.212E+02 0.320E+01   -.345E+01 0.204E+02 -.327E+01   -.322E-01 0.844E+00 0.600E-01   -.675E-05 0.485E-04 0.535E-05
   -.349E+01 -.212E+02 -.320E+01   0.345E+01 0.204E+02 0.327E+01   0.322E-01 0.844E+00 -.600E-01   0.675E-05 0.486E-04 -.535E-05
   -.349E+01 -.212E+02 -.320E+01   0.345E+01 0.204E+02 0.327E+01   0.322E-01 0.844E+00 -.600E-01   0.670E-05 0.486E-04 -.535E-05
   -.349E+01 -.212E+02 -.320E+01   0.345E+01 0.204E+02 0.327E+01   0.322E-01 0.844E+00 -.600E-01   0.675E-05 0.485E-04 -.535E-05
   -.349E+01 -.212E+02 -.320E+01   0.345E+01 0.204E+02 0.327E+01   0.322E-01 0.844E+00 -.600E-01   0.670E-05 0.485E-04 -.535E-05
   -.577E+01 -.201E+02 0.369E+01   0.568E+01 0.190E+02 -.379E+01   0.917E-01 0.110E+01 0.626E-01   0.734E-05 0.217E-04 0.855E-05
   -.577E+01 -.201E+02 0.369E+01   0.568E+01 0.190E+02 -.379E+01   0.917E-01 0.110E+01 0.626E-01   0.730E-05 0.217E-04 0.856E-05
   -.577E+01 -.201E+02 0.369E+01   0.568E+01 0.190E+02 -.379E+01   0.917E-01 0.110E+01 0.626E-01   0.734E-05 0.216E-04 0.855E-05
   -.577E+01 -.201E+02 0.369E+01   0.568E+01 0.190E+02 -.379E+01   0.917E-01 0.110E+01 0.626E-01   0.730E-05 0.216E-04 0.855E-05
   0.577E+01 -.201E+02 -.369E+01   -.568E+01 0.190E+02 0.379E+01   -.917E-01 0.110E+01 -.626E-01   -.730E-05 0.217E-04 -.856E-05
   0.577E+01 -.201E+02 -.369E+01   -.568E+01 0.190E+02 0.379E+01   -.917E-01 0.110E+01 -.626E-01   -.734E-05 0.217E-04 -.855E-05
   0.577E+01 -.201E+02 -.369E+01   -.568E+01 0.190E+02 0.379E+01   -.917E-01 0.110E+01 -.626E-01   -.730E-05 0.216E-04 -.855E-05
   0.577E+01 -.201E+02 -.369E+01   -.568E+01 0.190E+02 0.379E+01   -.917E-01 0.110E+01 -.626E-01   -.734E-05 0.216E-04 -.855E-05
   -.577E+01 -.201E+02 0.369E+01   0.568E+01 0.190E+02 -.379E+01   0.917E-01 0.110E+01 0.626E-01   0.734E-05 0.217E-04 0.855E-05
   -.577E+01 -.201E+02 0.369E+01   0.568E+01 0.190E+02 -.379E+01   0.917E-01 0.110E+01 0.626E-01   0.730E-05 0.217E-04 0.856E-05
   -.577E+01 -.201E+02 0.369E+01   0.568E+01 0.190E+02 -.379E+01   0.917E-01 0.110E+01 0.626E-01   0.734E-05 0.216E-04 0.855E-05
   -.577E+01 -.201E+02 0.369E+01   0.568E+01 0.190E+02 -.379E+01   0.917E-01 0.110E+01 0.626E-01   0.730E-05 0.216E-04 0.856E-05
   0.577E+01 -.201E+02 -.369E+01   -.568E+01 0.190E+02 0.379E+01   -.917E-01 0.110E+01 -.626E-01   -.730E-05 0.217E-04 -.855E-05
   0.577E+01 -.201E+02 -.369E+01   -.568E+01 0.190E+02 0.379E+01   -.917E-01 0.110E+01 -.626E-01   -.734E-05 0.217E-04 -.856E-05
   0.577E+01 -.201E+02 -.369E+01   -.568E+01 0.190E+02 0.379E+01   -.917E-01 0.110E+01 -.626E-01   -.730E-05 0.216E-04 -.855E-05
   0.577E+01 -.201E+02 -.369E+01   -.568E+01 0.190E+02 0.379E+01   -.917E-01 0.110E+01 -.626E-01   -.734E-05 0.216E-04 -.855E-05
 -----------------------------------------------------------------------------------------------
   -.360E-05 -.351E+02 -.240E-03   -.638E-12 -.284E-13 0.977E-13   0.749E-15 0.351E+02 -.694E-16   0.111E-11 0.120E-02 0.494E-11
 
 
 POSITION                                       TOTAL-FORCE (eV/Angst)
 -----------------------------------------------------------------------------------
      1.36870      1.27232      1.34761         0.001562     -0.017210      0.003300
      6.62019      1.27232      1.51262         0.001562     -0.017210      0.003300
      1.36870      6.53547      1.34761         0.001562     -0.017210      0.003300
      6.62019      6.53547      1.51262         0.001562     -0.017210      0.003300
      3.96446      3.90390      1.41691        -0.001562     -0.017210     -0.003300
      9.21595      3.90390      1.58193        -0.001562     -0.017210     -0.003300
      3.96446      9.16704      1.41691        -0.001562     -0.017210     -0.003300
      9.21595      9.16704      1.58193        -0.001562     -0.017210     -0.003300
      1.59876      3.91343      9.13952        -0.000000     -0.011304      0.000000
      6.85024      3.91343      9.30453        -0.000000     -0.011304      0.000000
      1.59876      9.17658      9.13952        -0.000000     -0.011304      0.000000
      6.85024      9.17658      9.30453        -0.000000     -0.011304      0.000000
      4.22450      1.29966      9.22202        -0.000000     -0.007219      0.000000
      9.47598      1.29966      9.38704        -0.000000     -0.007219      0.000000
      4.22450      6.56281      9.22202        -0.000000     -0.007219      0.000000
      9.47598      6.56281      9.38704        -0.000000     -0.007219      0.000000
      1.50209      1.27232      6.53341        -0.001562     -0.017210     -0.003300
      6.75357      1.27232      6.69843        -0.001562     -0.017210     -0.003300
      1.50209      6.53547      6.53341        -0.001562     -0.017210     -0.003300
      6.75357      6.53547      6.69843        -0.001562     -0.017210     -0.003300
      4.15781      3.90390      6.62912         0.001562     -0.017210      0.003300
      9.40929      3.90390      6.79413         0.001562     -0.017210      0.003300
      4.15781      9.16704      6.62912         0.001562     -0.017210      0.003300
      9.40929      9.16704      6.79413         0.001562     -0.017210      0.003300
      4.06114      1.28186      4.02302        -0.000000     -0.011304      0.000000
      9.31262      1.28186      4.18803        -0.000000     -0.011304      0.000000
      4.06114      6.54501      4.02302        -0.000000     -0.011304      0.000000
      9.31262      6.54501      4.18803        -0.000000     -0.011304      0.000000
      1.43539      3.93123      3.94051        -0.000000     -0.007219      0.000000
      6.68688      3.93123      4.10552        -0.000000     -0.007219      0.000000
      1.43539      9.19438      3.94051        -0.000000     -0.007219      0.000000
      6.68688      9.19438      4.10552        -0.000000     -0.007219      0.000000
     10.64863      0.03440      5.52864         0.007324      0.013414     -0.012742
      5.39714      0.03440      5.36362         0.007324      0.013414     -0.012742
     10.64863      5.29755      5.52864         0.007324      0.013414     -0.012742
      5.39714      5.29755      5.36362         0.007324      0.013414     -0.012742
      2.72513      0.03440      2.68241        -0.007324      0.013414      0.012742
      7.97661      0.03440      2.84743        -0.007324      0.013414      0.012742
      2.72513      5.29755      2.68241        -0.007324      0.013414      0.012742
      7.97661      5.29755      2.84743        -0.007324      0.013414      0.012742
      2.60804      2.66597      0.08211         0.007324      0.013414     -0.012742
      7.85952      2.66597      0.24712         0.007324      0.013414     -0.012742
      2.60804      7.92912      0.08211         0.007324      0.013414     -0.012742
      7.85952      7.92912      0.24712         0.007324      0.013414     -0.012742
      0.26275      2.66597      7.79891        -0.007324      0.013414      0.012742
      5.51423      2.66597      7.96393        -0.007324      0.013414      0.012742
      0.26275      7.92912      7.79891        -0.007324      0.013414      0.012742
      5.51423      7.92912      7.96393        -0.007324      0.013414      0.012742
     10.49214      0.03408      0.33700         0.011126      0.013058     -0.029948
      5.24065      0.03408      0.17199         0.011126      0.013058     -0.029948
     10.49214      5.29723      0.33700         0.011126      0.013058     -0.029948
      5.24065      5.29723      0.17199         0.011126      0.013058     -0.029948
      2.88162      0.03408      7.87405        -0.011126      0.013058      0.029948
      8.13310      0.03408      8.03906        -0.011126      0.013058      0.029948
      2.88162      5.29723      7.87405        -0.011126      0.013058      0.029948
      8.13310      5.29723      8.03906        -0.011126      0.013058      0.029948
      2.77828      2.66566      5.28849         0.011126      0.013058     -0.029948
      8.02976      2.66566      5.45350         0.011126      0.013058     -0.029948
      2.77828      7.92880      5.28849         0.011126      0.013058     -0.029948
      8.02976      7.92880      5.45350         0.011126      0.013058     -0.029948
      0.09251      2.66566      2.59253        -0.011126      0.013058      0.029948
      5.34400      2.66566      2.75755        -0.011126      0.013058      0.029948
      0.09251      7.92880      2.59253        -0.011126      0.013058      0.029948
      5.34400      7.92880      2.75755        -0.011126      0.013058      0.029948
 -----------------------------------------------------------------------------------
    total drift:                               -0.000004      0.010262     -0.000240


--------------------------------------------------------------------------------------------------------



  FREE ENERGIE OF THE ION-ELECTRON SYSTEM (eV)
  ---------------------------------------------------
  free  energy   TOTEN  =      -327.69903584 eV

  energy  without entropy=     -327.69903584  energy(sigma->0) =     -327.69903584
 


--------------------------------------------------------------------------------------------------------


    POTLOK:  cpu time    0.1428: real time    0.1435


--------------------------------------------------------------------------------------------------------


 writing wavefunctions
     LOOP+:  cpu time 3836.8672: real time 3864.1313
    4ORBIT:  cpu time    0.0000: real time    0.0000
 


 total charge     
 
# of ion       s       p       d       tot
------------------------------------------
    1        1.314   2.410   0.000   3.724
    2        1.314   2.410   0.000   3.724
    3        1.314   2.410   0.000   3.724
    4        1.314   2.410   0.000   3.724
    5        1.314   2.410   0.000   3.724
    6        1.314   2.410   0.000   3.724
    7        1.314   2.410   0.000   3.724
    8        1.314   2.410   0.000   3.724
    9        1.315   2.405   0.000   3.720
   10        1.315   2.405   0.000   3.720
   11        1.315   2.405   0.000   3.720
   12        1.315   2.405   0.000   3.720
   13        1.313   2.412   0.000   3.724
   14        1.313   2.412   0.000   3.724
   15        1.313   2.412   0.000   3.724
   16        1.313   2.412   0.000   3.724
   17        1.314   2.410   0.000   3.724
   18        1.314   2.410   0.000   3.724
   19        1.314   2.410   0.000   3.724
   20        1.314   2.410   0.000   3.724
   21        1.314   2.410   0.000   3.724
   22        1.314   2.410   0.000   3.724
   23        1.314   2.410   0.000   3.724
   24        1.314   2.410   0.000   3.724
   25        1.315   2.405   0.000   3.720
   26        1.315   2.405   0.000   3.720
   27        1.315   2.405   0.000   3.720
   28        1.315   2.405   0.000   3.720
   29        1.313   2.412   0.000   3.724
   30        1.313   2.412   0.000   3.724
   31        1.313   2.412   0.000   3.724
   32        1.313   2.412   0.000   3.724
   33        0.259   6.202   8.917  15.378
   34        0.259   6.202   8.917  15.378
   35        0.259   6.202   8.917  15.378
   36        0.259   6.202   8.917  15.378
   37        0.259   6.202   8.917  15.378
   38        0.259   6.202   8.917  15.378
   39        0.259   6.202   8.917  15.378
   40        0.259   6.202   8.917  15.378
   41        0.259   6.202   8.917  15.378
   42        0.259   6.202   8.917  15.378
   43        0.259   6.202   8.917  15.378
   44        0.259   6.202   8.917  15.378
   45        0.259   6.202   8.917  15.378
   46        0.259   6.202   8.917  15.378
   47        0.259   6.202   8.917  15.378
   48        0.259   6.202   8.917  15.378
   49        0.350   6.350   5.822  12.521
   50        0.350   6.350   5.822  12.521
   51        0.350   6.350   5.822  12.521
   52        0.350   6.350   5.822  12.521
   53        0.350   6.350   5.822  12.521
   54        0.350   6.350   5.822  12.521
   55        0.350   6.350   5.822  12.521
   56        0.350   6.350   5.822  12.521
   57        0.350   6.350   5.822  12.521
   58        0.350   6.350   5.822  12.521
   59        0.350   6.350   5.822  12.521
   60        0.350   6.350   5.822  12.521
   61        0.350   6.350   5.822  12.521
   62        0.350   6.350   5.822  12.521
   63        0.350   6.350   5.822  12.521
   64        0.350   6.350   5.822  12.521
--------------------------------------------------
tot         51.787 277.925 235.813 565.526
 


 magnetization (x)
 
# of ion       s       p       d       tot
------------------------------------------
    1       -0.000  -0.015   0.000  -0.015
    2       -0.000  -0.015   0.000  -0.015
    3       -0.000  -0.015   0.000  -0.015
    4       -0.000  -0.015   0.000  -0.015
    5        0.000   0.015   0.000   0.015
    6        0.000   0.015   0.000   0.015
    7        0.000   0.015   0.000   0.015
    8        0.000   0.015   0.000   0.015
    9       -0.000   0.000   0.000   0.000
   10       -0.000   0.000   0.000  -0.000
   11       -0.000   0.000   0.000   0.000
   12       -0.000   0.000   0.000  -0.000
   13       -0.000   0.000   0.000  -0.000
   14       -0.000   0.000   0.000  -0.000
   15       -0.000   0.000   0.000  -0.000
   16       -0.000   0.000   0.000  -0.000
   17        0.000   0.015   0.000   0.015
   18        0.000   0.015   0.000   0.015
   19        0.000   0.015   0.000   0.015
   20        0.000   0.015   0.000   0.015
   21       -0.000  -0.015   0.000  -0.015
   22       -0.000  -0.015   0.000  -0.015
   23       -0.000  -0.015   0.000  -0.015
   24       -0.000  -0.015   0.000  -0.015
   25       -0.000   0.000   0.000   0.000
   26       -0.000   0.000   0.000   0.000
   27       -0.000   0.000   0.000   0.000
   28       -0.000   0.000   0.000   0.000
   29       -0.000  -0.000   0.000  -0.000
   30       -0.000   0.000   0.000   0.000
   31       -0.000  -0.000   0.000  -0.000
   32       -0.000   0.000   0.000   0.000
   33        0.000   0.001  -0.002  -0.001
   34        0.000   0.001  -0.002  -0.001
   35        0.000   0.001  -0.002  -0.001
   36        0.000   0.001  -0.002  -0.001
   37       -0.000  -0.001   0.002   0.001
   38       -0.000  -0.001   0.002   0.001
   39       -0.000  -0.001   0.002   0.001
   40       -0.000  -0.001   0.002   0.001
   41        0.000   0.001  -0.002  -0.001
   42        0.000   0.001  -0.002  -0.001
   43        0.000   0.001  -0.002  -0.001
   44        0.000   0.001  -0.002  -0.001
   45       -0.000  -0.001   0.002   0.001
   46       -0.000  -0.001   0.002   0.001
   47       -0.000  -0.001   0.002   0.001
   48       -0.000  -0.001   0.002   0.001
   49        0.020   0.054   3.668   3.742
   50        0.020   0.054   3.668   3.742
   51        0.020   0.054   3.668   3.742
   52        0.020   0.054   3.668   3.742
   53       -0.020  -0.054  -3.668  -3.742
   54       -0.020  -0.054  -3.668  -3.742
   55       -0.020  -0.054  -3.668  -3.742
   56       -0.020  -0.054  -3.668  -3.742
   57        0.020   0.054   3.668   3.742
   58        0.020   0.054   3.668   3.742
   59        0.020   0.054   3.668   3.742
   60        0.020   0.054   3.668   3.742
   61       -0.020  -0.054  -3.668  -3.742
   62       -0.020  -0.054  -3.668  -3.742
   63       -0.020  -0.054  -3.668  -3.742
   64       -0.020  -0.054  -3.668  -3.742
--------------------------------------------------
tot         -0.000   0.000  -0.000  -0.000
 
 BZINTS: Fermi energy:  4.939155;688.000000 electrons
         Band energy:***********;  BLOECHL correction:  0.000000

 total amount of memory used by VASP MPI-rank0   348353. kBytes
=======================================================================

   base      :      30000. kBytes
   nonl-proj :     216760. kBytes
   fftplans  :       4588. kBytes
   grid      :      69719. kBytes
   one-center:       1990. kBytes
   wavefun   :      25296. kBytes
 
  
  
 General timing and accounting informations for this job:
 ========================================================
  
                  Total CPU time used (sec):     3898.400
                            User time (sec):     3885.405
                          System time (sec):       12.996
                         Elapsed time (sec):     3927.172
  
                   Maximum memory used (kb):      704272.
                   Average memory used (kb):           0.
  
                          Minor page faults:       660854
                          Major page faults:         6047
                 Voluntary context switches:         7569
