       N       E                     dE             d eps       ncg     rms          rms(c)
DAV:   1     0.602648050545E+04    0.60265E+04   -0.51781E+05 16384   0.197E+03
DAV:   2    -0.102964515184E+03   -0.61294E+04   -0.60218E+04 18176   0.446E+02
DAV:   3    -0.349206337418E+03   -0.24624E+03   -0.24544E+03 22784   0.972E+01
DAV:   4    -0.352595255036E+03   -0.33889E+01   -0.33888E+01 19456   0.115E+01
DAV:   5    -0.352700750355E+03   -0.10550E+00   -0.10549E+00 22272   0.199E+00    0.383E+01
DAV:   6    -0.334012049696E+03    0.18689E+02   -0.20562E+01 26368   0.150E+01    0.213E+01
DAV:   7    -0.328788848686E+03    0.52232E+01   -0.12665E+01 21760   0.105E+01    0.165E+01
DAV:   8    -0.327880300311E+03    0.90855E+00   -0.43029E+00 22016   0.476E+00    0.598E+00
DAV:   9    -0.327825666052E+03    0.54634E-01   -0.10584E+00 23040   0.317E+00    0.303E+00
DAV:  10    -0.327889887518E+03   -0.64221E-01   -0.11238E+00 22528   0.276E+00    0.349E+00
DAV:  11    -0.327845988693E+03    0.43899E-01   -0.48655E-01 19200   0.197E+00    0.109E+00
DAV:  12    -0.327862495160E+03   -0.16506E-01   -0.52952E-02 22016   0.346E-01    0.452E-01
DAV:  13    -0.327865601717E+03   -0.31066E-02   -0.11794E-02 21248   0.219E-01    0.253E-01
DAV:  14    -0.327866922166E+03   -0.13204E-02   -0.36176E-03 21504   0.873E-02    0.129E-01
DAV:  15    -0.327867540201E+03   -0.61803E-03   -0.15673E-03 21504   0.501E-02    0.686E-02
DAV:  16    -0.327867816051E+03   -0.27585E-03   -0.85375E-04 20992   0.291E-02    0.455E-02
DAV:  17    -0.327867930178E+03   -0.11413E-03   -0.57333E-04 18944   0.262E-02    0.241E-02
DAV:  18    -0.327867952192E+03   -0.22014E-04   -0.13416E-04 21760   0.134E-02    0.109E-02
DAV:  19    -0.327867955018E+03   -0.28257E-05   -0.12688E-05 19200   0.538E-03    0.723E-03
DAV:  20    -0.327867956104E+03   -0.10865E-05   -0.76804E-06 22784   0.384E-03    0.391E-03
DAV:  21    -0.327867956452E+03   -0.34789E-06   -0.13914E-06 17920   0.154E-03    0.193E-03
DAV:  22    -0.327867956536E+03   -0.83877E-07   -0.22035E-07 26112   0.873E-04    0.999E-04
DAV:  23    -0.327867956581E+03   -0.45125E-07   -0.61266E-08 15104   0.391E-04    0.501E-04
DAV:  24    -0.327867956609E+03   -0.28376E-07   -0.36553E-08 17920   0.208E-04    0.270E-04
DAV:  25    -0.327867956619E+03   -0.94442E-08   -0.20103E-08 13312   0.151E-04
   1 F= -.32786796E+03 E0= -.32786796E+03  d E =0.000000E+00  mag=     0.0000
