 vasp.5.4.4.18Apr17-6-g9f103f2a35 (build Oct 30 2023 17:30:16) complex          
  
 executed on             LinuxIFC date 2024.06.30  04:42:09
 running on  256 total cores
 distrk:  each k-point on  256 cores,    1 groups
 distr:  one band on NCORES_PER_BAND=   1 cores,  256 groups


--------------------------------------------------------------------------------------------------------


 INCAR:
 POTCAR:    PAW_PBE S 06Sep2000                   
 POTCAR:     PAW_PBE Cu_pv 06Sep2000              
 POTCAR:     PAW_PBE Fe_pv 02Aug2007              

 ----------------------------------------------------------------------------- 
|                                                                             |
|           W    W    AA    RRRRR   N    N  II  N    N   GGGG   !!!           |
|           W    W   A  A   R    R  NN   N  II  NN   N  G    G  !!!           |
|           W    W  A    A  R    R  N N  N  II  N N  N  G       !!!           |
|           W WW W  AAAAAA  RRRRR   N  N N  II  N  N N  G  GGG   !            |
|           WW  WW  A    A  R   R   N   NN  II  N   NN  G    G                |
|           W    W  A    A  R    R  N    N  II  N    N   GGGG   !!!           |
|                                                                             |
|      For optimal performance we recommend to set                            |
|        NCORE= 4 - approx SQRT( number of cores)                             |
|      NCORE specifies how many cores store one orbital (NPAR=cpu/NCORE).     |
|      This setting can  greatly improve the performance of VASP for DFT.     |
|      The default,   NCORE=1            might be grossly inefficient         |
|      on modern multi-core architectures or massively parallel machines.     |
|      Do your own testing !!!!                                               |
|      Unfortunately you need to use the default for GW and RPA calculations. |
|      (for HF NCORE is supported but not extensively tested yet)             |
|                                                                             |
 ----------------------------------------------------------------------------- 

 POTCAR:    PAW_PBE S 06Sep2000                   
   SHA256 =  0fc7481fb0695f01bdc6462160264c5c84044ae9ec85a907d398b887a2bc3132 S/
   COPYR  = (c) Copyright 06Sep2000 Georg Kresse                                
   COPYR  = This file is part of the software VASP. Any use, copying, and all ot
   COPYR  = If you do not have a valid VASP license, you may not use, copy or di
   VRHFIN =S : s2p4                                                             
   LEXCH  = PE                                                                  
   EATOM  =   276.8230 eV,   20.3459 Ry                                         
                                                                                
   TITEL  = PAW_PBE S 06Sep2000                                                 
   LULTRA =        F    use ultrasoft PP ?                                      
   IUNSCR =        1    unscreen: 0-lin 1-nonlin 2-no                           
   RPACOR =    1.500    partial core radius                                     
   POMASS =   32.066; ZVAL   =    6.000    mass and valenz                      
   RCORE  =    1.900    outmost cutoff radius                                   
   RWIGS  =    2.200; RWIGS  =    1.164    wigner-seitz radius (au A)           
   ENMAX  =  258.689; ENMIN  =  194.016 eV                                      
   ICORE  =        2    local potential                                         
   LCOR   =        T    correct aug charges                                     
   LPAW   =        T    paw PP                                                  
   EAUG   =  335.092                                                            
   DEXC   =    0.000                                                            
   RMAX   =    1.942    core radius for proj-oper                               
   RAUG   =    1.300    factor for augmentation sphere                          
   RDEP   =    1.954    radius for radial grids                                 
   RDEPT  =    1.744    core radius for aug-charge                              
                                                                                
   Atomic configuration                                                         
    6 entries                                                                   
     n  l   j            E        occ.                                          
     1  0  0.50     -2405.8406   2.0000                                         
     2  0  0.50      -211.7007   2.0000                                         
     2  1  1.50      -156.4958   6.0000                                         
     3  0  0.50       -17.2562   2.0000                                         
     3  1  0.50        -7.0085   4.0000                                         
     3  2  1.50        -6.8029   0.0000                                         
   Description                                                                  
     l       E           TYP  RCUT    TYP  RCUT                                 
     0    -17.2561641     23  1.900                                             
     0    -15.8743224     23  1.900                                             
     1     -7.0085400     23  1.900                                             
     1     -2.7779785     23  1.900                                             
     2     -6.8029130     23  1.900                                             
  local pseudopotential read in
  partial core-charges read in
  partial kinetic energy density read in
  atomic valenz-charges read in
  non local Contribution for L=           0  read in
    real space projection operators read in
  non local Contribution for L=           0  read in
    real space projection operators read in
  non local Contribution for L=           1  read in
    real space projection operators read in
  non local Contribution for L=           1  read in
    real space projection operators read in
    PAW grid and wavefunctions read in
 
   number of l-projection  operators is LMAX  =           4
   number of lm-projection operators is LMMAX =           8
 
 POTCAR:     PAW_PBE Cu_pv 06Sep2000              
   SHA256 =  cb7b504e2ea725fe1f25c85a9ac77d4012ce94cd394135b722c4e25ec297f1cb Cu
   COPYR  = (c) Copyright 06Sep2000 Georg Kresse                                
   COPYR  = This file is part of the software VASP. Any use, copying, and all ot
   COPYR  = If you do not have a valid VASP license, you may not use, copy or di
   VRHFIN =Cu: d10 p1                                                           
   LEXCH  = PE                                                                  
   EATOM  =  4120.1201 eV,  302.8203 Ry                                         
                                                                                
   TITEL  = PAW_PBE Cu_pv 06Sep2000                                             
   LULTRA =        F    use ultrasoft PP ?                                      
   IUNSCR =        1    unscreen: 0-lin 1-nonlin 2-no                           
   RPACOR =    1.500    partial core radius                                     
   POMASS =   63.546; ZVAL   =   17.000    mass and valenz                      
   RCORE  =    2.000    outmost cutoff radius                                   
   RWIGS  =    2.000; RWIGS  =    1.058    wigner-seitz radius (au A)           
   ENMAX  =  368.648; ENMIN  =  276.486 eV                                      
   RCLOC  =    1.304    cutoff for local pot                                    
   LCOR   =        T    correct aug charges                                     
   LPAW   =        T    paw PP                                                  
   EAUG   =  758.233                                                            
   DEXC   =    0.000                                                            
   RMAX   =    2.046    core radius for proj-oper                               
   RAUG   =    1.300    factor for augmentation sphere                          
   RDEP   =    2.025    radius for radial grids                                 
   RDEPT  =    1.558    core radius for aug-charge                              
                                                                                
   Atomic configuration                                                         
    8 entries                                                                   
     n  l   j            E        occ.                                          
     1  0  0.50     -8850.2467   2.0000                                         
     2  0  0.50     -1062.3498   2.0000                                         
     2  1  1.50      -916.8226   6.0000                                         
     3  0  0.50      -114.6929   2.0000                                         
     3  1  1.50       -72.1325   6.0000                                         
     3  2  2.50        -5.0394  10.0000                                         
     4  0  0.50        -4.6097   1.0000                                         
     4  3  2.50        -1.3606   0.0000                                         
   Description                                                                  
     l       E           TYP  RCUT    TYP  RCUT                                 
     1    -72.1324777     23  1.700                                             
     1     -1.3605826     23  1.700                                             
     2     -5.0393776     23  2.000                                             
     2     -6.3999602     23  2.000                                             
     0     -4.6097062     23  1.800                                             
     0     14.1620818     23  1.800                                             
  local pseudopotential read in
  partial core-charges read in
  partial kinetic energy density read in
  atomic valenz-charges read in
  non local Contribution for L=           1  read in
    real space projection operators read in
  non local Contribution for L=           1  read in
    real space projection operators read in
  non local Contribution for L=           2  read in
    real space projection operators read in
  non local Contribution for L=           2  read in
    real space projection operators read in
  non local Contribution for L=           0  read in
    real space projection operators read in
  non local Contribution for L=           0  read in
    real space projection operators read in
    PAW grid and wavefunctions read in
 
   number of l-projection  operators is LMAX  =           6
   number of lm-projection operators is LMMAX =          18
 
 POTCAR:     PAW_PBE Fe_pv 02Aug2007              
   SHA256 =  5d22e414b1f82158bf2c7ecb8b97b28fd0923e48cadc1c3bf74d524558f5dd32 Fe
   COPYR  = (c) Copyright 02Aug2007 Georg Kresse                                
   COPYR  = This file is part of the software VASP. Any use, copying, and all ot
   COPYR  = If you do not have a valid VASP license, you may not use, copy or di
   VRHFIN =Fe:  3pd7s1                                                          
   LEXCH  = PE                                                                  
   EATOM  =  2457.4239 eV,  180.6156 Ry                                         
                                                                                
   TITEL  = PAW_PBE Fe_pv 02Aug2007                                             
   LULTRA =        F    use ultrasoft PP ?                                      
   IUNSCR =        1    unscreen: 0-lin 1-nonlin 2-no                           
   RPACOR =    1.750    partial core radius                                     
   POMASS =   55.847; ZVAL   =   14.000    mass and valenz                      
   RCORE  =    2.200    outmost cutoff radius                                   
   RWIGS  =    2.200; RWIGS  =    1.164    wigner-seitz radius (au A)           
   ENMAX  =  293.238; ENMIN  =  219.928 eV                                      
   ICORE  =        3    local potential                                         
   LCOR   =        T    correct aug charges                                     
   LPAW   =        T    paw PP                                                  
   EAUG   =  578.342                                                            
   DEXC   =    0.000                                                            
   RMAX   =    2.249    core radius for proj-oper                               
   RAUG   =    1.300    factor for augmentation sphere                          
   RDEP   =    2.296    radius for radial grids                                 
   RDEPT  =    1.766    core radius for aug-charge                              
                                                                                
   Atomic configuration                                                         
    8 entries                                                                   
     n  l   j            E        occ.                                          
     1  0  0.50     -6993.8440   2.0000                                         
     2  0  0.50      -814.6047   2.0000                                         
     2  1  1.50      -693.3689   6.0000                                         
     3  0  0.50       -89.4732   2.0000                                         
     3  1  1.50       -55.6373   6.0000                                         
     3  2  2.50        -3.8151   7.0000                                         
     4  0  0.50        -4.2551   1.0000                                         
     4  3  2.50        -1.3606   0.0000                                         
   Description                                                                  
     l       E           TYP  RCUT    TYP  RCUT                                 
     1    -55.6372668     23  2.000                                             
     1     -5.4423304     23  2.000                                             
     2     -3.8151096     23  2.200                                             
     2     -5.1756922     23  2.200                                             
     0     -4.2550951     23  2.200                                             
     0     27.2116520     23  2.200                                             
     3     -1.3605826     23  2.200                                             
  local pseudopotential read in
  partial core-charges read in
  partial kinetic energy density read in
  atomic valenz-charges read in
  non local Contribution for L=           1  read in
    real space projection operators read in
  non local Contribution for L=           1  read in
    real space projection operators read in
  non local Contribution for L=           2  read in
    real space projection operators read in
  non local Contribution for L=           2  read in
    real space projection operators read in
  non local Contribution for L=           0  read in
    real space projection operators read in
  non local Contribution for L=           0  read in
    real space projection operators read in
    PAW grid and wavefunctions read in
 
   number of l-projection  operators is LMAX  =           6
   number of lm-projection operators is LMMAX =          18
 

 ----------------------------------------------------------------------------- 
|                                                                             |
|  ADVICE TO THIS USER RUNNING 'VASP/VAMP'   (HEAR YOUR MASTER'S VOICE ...):  |
|                                                                             |
|      You have a (more or less) 'large supercell' and for larger cells       |
|      it might be more efficient to use real space projection opertators     |
|      So try LREAL= Auto  in the INCAR   file.                               |
|      Mind:          For very  accurate calculation you might also keep the  |
|      reciprocal projection scheme          (i.e. LREAL=.FALSE.)             |
|                                                                             |
 ----------------------------------------------------------------------------- 


 ----------------------------------------------------------------------------- 
|                                                                             |
|  ADVICE TO THIS USER RUNNING 'VASP/VAMP'   (HEAR YOUR MASTER'S VOICE ...):  |
|                                                                             |
|      You enforced a specific xc-type in the INCAR file,                     |
|      a different type was found on the POTCAR file                          |
|          I HOPE YOU KNOW, WHAT YOU ARE  DOING                               |
|                                                                             |
 ----------------------------------------------------------------------------- 

  PAW_PBE S 06Sep2000                   :
 energy of atom  1       EATOM= -276.8230
 kinetic energy error for atom=    0.0007 (will be added to EATOM!!)
   PAW_PBE Cu_pv 06Sep2000              :
 energy of atom  2       EATOM=-4120.1201
 kinetic energy error for atom=    0.0094 (will be added to EATOM!!)
   PAW_PBE Fe_pv 02Aug2007              :
 energy of atom  3       EATOM=-2457.4239
 kinetic energy error for atom=    0.0025 (will be added to EATOM!!)
 
 
 POSCAR: Fe16 Cu16 S32                           
  positions in direct lattice
  No initial velocities read in
 exchange correlation table for  LEXCH =       14
   RHO(1)=    0.500       N(1)  =     2000
   RHO(2)=  100.500       N(2)  =     4000
 


--------------------------------------------------------------------------------------------------------


 ion  position               nearest neighbor table
   1  0.126  0.122  0.125-  41 2.26  61 2.27  37 2.27  49 2.29
   2  0.626  0.122  0.125-  42 2.26  62 2.27  38 2.27  50 2.29
   3  0.126  0.622  0.125-  43 2.26  63 2.27  39 2.27  51 2.29
   4  0.626  0.622  0.125-  44 2.26  64 2.27  40 2.27  52 2.29
   5  0.374  0.372  0.125-  39 2.26  52 2.27  41 2.27  62 2.29
   6  0.874  0.372  0.125-  40 2.26  51 2.27  42 2.27  61 2.29
   7  0.374  0.872  0.125-  37 2.26  50 2.27  43 2.27  64 2.29
   8  0.874  0.872  0.125-  38 2.26  49 2.27  44 2.27  63 2.29
   9  0.125  0.372  0.875-  41 2.27  45 2.27  51 2.27  55 2.27
  10  0.625  0.372  0.875-  42 2.27  46 2.27  52 2.27  56 2.27
  11  0.125  0.872  0.875-  43 2.27  47 2.27  49 2.27  53 2.27
  12  0.625  0.872  0.875-  44 2.27  48 2.27  50 2.27  54 2.27
  13  0.375  0.124  0.875-  41 2.26  46 2.26  50 2.28  53 2.28
  14  0.875  0.124  0.875-  42 2.26  45 2.26  49 2.28  54 2.28
  15  0.375  0.624  0.875-  43 2.26  48 2.26  52 2.28  55 2.28
  16  0.875  0.624  0.875-  44 2.26  47 2.26  51 2.28  56 2.28
  17  0.124  0.122  0.625-  45 2.26  57 2.27  33 2.27  53 2.29
  18  0.624  0.122  0.625-  46 2.26  58 2.27  34 2.27  54 2.29
  19  0.124  0.622  0.625-  47 2.26  59 2.27  35 2.27  55 2.29
  20  0.624  0.622  0.625-  48 2.26  60 2.27  36 2.27  56 2.29
  21  0.376  0.372  0.625-  36 2.26  55 2.27  46 2.27  57 2.29
  22  0.876  0.372  0.625-  35 2.26  56 2.27  45 2.27  58 2.29
  23  0.376  0.872  0.625-  34 2.26  53 2.27  48 2.27  59 2.29
  24  0.876  0.872  0.625-  33 2.26  54 2.27  47 2.27  60 2.29
  25  0.375  0.122  0.375-  34 2.27  37 2.27  57 2.27  62 2.27
  26  0.875  0.122  0.375-  33 2.27  38 2.27  58 2.27  61 2.27
  27  0.375  0.622  0.375-  36 2.27  39 2.27  59 2.27  64 2.27
  28  0.875  0.622  0.375-  35 2.27  40 2.27  60 2.27  63 2.27
  29  0.125  0.374  0.375-  35 2.26  39 2.26  57 2.28  61 2.28
  30  0.625  0.374  0.375-  36 2.26  40 2.26  58 2.28  62 2.28
  31  0.125  0.874  0.375-  33 2.26  37 2.26  59 2.28  63 2.28
  32  0.625  0.874  0.375-  34 2.26  38 2.26  60 2.28  64 2.28
  33  0.999  0.003  0.500-  24 2.26  31 2.26  26 2.27  17 2.27
  34  0.499  0.003  0.500-  23 2.26  32 2.26  25 2.27  18 2.27
  35  0.999  0.503  0.500-  22 2.26  29 2.26  28 2.27  19 2.27
  36  0.499  0.503  0.500-  21 2.26  30 2.26  27 2.27  20 2.27
  37  0.251  0.003  0.250-   7 2.26  31 2.26  25 2.27   1 2.27
  38  0.751  0.003  0.250-   8 2.26  32 2.26  26 2.27   2 2.27
  39  0.251  0.503  0.250-   5 2.26  29 2.26  27 2.27   3 2.27
  40  0.751  0.503  0.250-   6 2.26  30 2.26  28 2.27   4 2.27
  41  0.249  0.253  0.000-   1 2.26  13 2.26   9 2.27   5 2.27
  42  0.749  0.253  0.000-   2 2.26  14 2.26  10 2.27   6 2.27
  43  0.249  0.753  0.000-   3 2.26  15 2.26  11 2.27   7 2.27
  44  0.749  0.753  0.000-   4 2.26  16 2.26  12 2.27   8 2.27
  45  0.001  0.253  0.750-  17 2.26  14 2.26   9 2.27  22 2.27
  46  0.501  0.253  0.750-  18 2.26  13 2.26  10 2.27  21 2.27
  47  0.001  0.753  0.750-  19 2.26  16 2.26  11 2.27  24 2.27
  48  0.501  0.753  0.750-  20 2.26  15 2.26  12 2.27  23 2.27
  49  0.999  0.003  0.000-   8 2.27  11 2.27  14 2.28   1 2.29
  50  0.499  0.003  0.000-   7 2.27  12 2.27  13 2.28   2 2.29
  51  0.999  0.503  0.000-   6 2.27   9 2.27  16 2.28   3 2.29
  52  0.499  0.503  0.000-   5 2.27  10 2.27  15 2.28   4 2.29
  53  0.251  0.003  0.750-  23 2.27  11 2.27  13 2.28  17 2.29
  54  0.751  0.003  0.750-  24 2.27  12 2.27  14 2.28  18 2.29
  55  0.251  0.503  0.750-  21 2.27   9 2.27  15 2.28  19 2.29
  56  0.751  0.503  0.750-  22 2.27  10 2.27  16 2.28  20 2.29
  57  0.249  0.253  0.500-  17 2.27  25 2.27  29 2.28  21 2.29
  58  0.749  0.253  0.500-  18 2.27  26 2.27  30 2.28  22 2.29
  59  0.249  0.753  0.500-  19 2.27  27 2.27  31 2.28  23 2.29
  60  0.749  0.753  0.500-  20 2.27  28 2.27  32 2.28  24 2.29
  61  0.001  0.253  0.250-   1 2.27  26 2.27  29 2.28   6 2.29
  62  0.501  0.253  0.250-   2 2.27  25 2.27  30 2.28   5 2.29
  63  0.001  0.753  0.250-   3 2.27  28 2.27  31 2.28   8 2.29
  64  0.501  0.753  0.250-   4 2.27  27 2.27  32 2.28   7 2.29
 
  LATTYP: Found a simple monoclinic cell.
 ALAT       =    15.1479504095
 B/A-ratio  =     0.6945974020
 C/A-ratio  =     1.5691887517
 COS(beta)  =    -0.9528570881
  
  Lattice vectors:
  
 A1 = ( -10.7623140000,   0.0000000000, -10.6598780000)
 A2 = (   0.0000000000, -10.5217270000,   0.0000000000)
 A3 = (  11.0165410000,   0.0000000000,  21.0629630000)


Analysis of symmetry for initial positions (statically):
=====================================================================
 Subroutine PRICEL returns following result:
 
  LATTYP: Found a base centered monoclinic cell.
 ALAT       =    11.4266088060
 B/A-ratio  =     0.4604046213
 C/A-ratio  =     0.9106980968
 COS(beta)  =    -0.8068259002
  
  Lattice vectors:
  
 A1 = (  -2.4999082500,  -2.6304317500,   5.1373442500)
 A2 = (  -2.4999082500,   2.6304317500,   5.1373442500)
 A3 = (  -0.2542270000,   0.0000000000, -10.4030850000)
 
   8 primitive cells build up your supercell.
 

 Routine SETGRP: Setting up the symmetry group for a 
 simple monoclinic supercell.


 Subroutine GETGRP returns: Found  2 space group operations
 (whereof  1 operations were pure point group operations)
 out of a pool of  4 trial point group operations.


The static configuration has the point symmetry C_1 .
 The point group associated with its full space group is C_2 .


Analysis of symmetry for dynamics (positions and initial velocities):
=====================================================================
 Subroutine PRICEL returns following result:
 
  LATTYP: Found a base centered monoclinic cell.
 ALAT       =    11.4266088060
 B/A-ratio  =     0.4604046213
 C/A-ratio  =     0.9106980968
 COS(beta)  =    -0.8068259002
  
  Lattice vectors:
  
 A1 = (  -2.4999082500,  -2.6304317500,   5.1373442500)
 A2 = (  -2.4999082500,   2.6304317500,   5.1373442500)
 A3 = (  -0.2542270000,   0.0000000000, -10.4030850000)
 
   8 primitive cells build up your supercell.
 

 Routine SETGRP: Setting up the symmetry group for a 
 simple monoclinic supercell.


 Subroutine GETGRP returns: Found  2 space group operations
 (whereof  1 operations were pure point group operations)
 out of a pool of  4 trial point group operations.


The dynamic configuration has the point symmetry C_1 .
 The point group associated with its full space group is C_2 .


Analysis of structural, dynamic, and magnetic symmetry:
=====================================================================
 Subroutine PRICEL returns following result:
 
  LATTYP: Found a base centered monoclinic cell.
 ALAT       =    11.4266088060
 B/A-ratio  =     0.4604046213
 C/A-ratio  =     0.9106980968
 COS(beta)  =    -0.8068259002
  
  Lattice vectors:
  
 A1 = (  -2.4999082500,  -2.6304317500,   5.1373442500)
 A2 = (  -2.4999082500,   2.6304317500,   5.1373442500)
 A3 = (  -0.2542270000,   0.0000000000, -10.4030850000)
 
   8 primitive cells build up your supercell.
 

 Routine SETGRP: Setting up the symmetry group for a 
 simple monoclinic supercell.


 Subroutine GETGRP returns: Found  2 space group operations
 (whereof  1 operations were pure point group operations)
 out of a pool of  4 trial point group operations.


The magnetic configuration has the point symmetry C_1 .
 The point group associated with its full space group is C_2 .


 Subroutine INISYM returns: Found  2 space group operations
 (whereof  1 operations are pure point group operations),
 and found     8 'primitive' translations

 
 
 KPOINTS: Automatic mesh                          

Automatic generation of k-mesh.
Space group operators:
 irot       det(A)        alpha          n_x          n_y          n_z        tau_x        tau_y        tau_z
    1     1.000000     0.000000     1.000000     0.000000     0.000000     0.000000     0.000000     0.000000
    2     1.000000   179.999999     0.000000     1.000000     0.000000    -0.250000     0.000000    -0.250000
 
 Subroutine IBZKPT returns following result:
 ===========================================
 
 Found      8 irreducible k-points:
 
 Following reciprocal coordinates:
            Coordinates               Weight
  0.000000  0.000000  0.000000      1.000000
  0.500000  0.000000 -0.000000      1.000000
  0.000000  0.500000  0.000000      1.000000
  0.500000  0.500000 -0.000000      1.000000
 -0.000000  0.000000  0.500000      1.000000
  0.500000  0.000000  0.500000      1.000000
 -0.000000  0.500000  0.500000      1.000000
  0.500000  0.500000  0.500000      1.000000
 
 Following cartesian coordinates:
            Coordinates               Weight
  0.000000  0.000000  0.000000      1.000000
  0.047611  0.000000 -0.001163      1.000000
  0.000000  0.047521  0.000000      1.000000
  0.047611  0.047521 -0.001163      1.000000
 -0.001175  0.000000  0.048091      1.000000
  0.046436  0.000000  0.046928      1.000000
 -0.001175  0.047521  0.048091      1.000000
  0.046436  0.047521  0.046928      1.000000
 
 TETIRR: Found     24 inequivalent tetrahedra from       48
 
 Subroutine IBZKPT_HF returns following result:
 ==============================================
 
 Found      8 k-points in 1st BZ
 the following      8 k-points will be used (e.g. in the exchange kernel)
 Following reciprocal coordinates:   # in IRBZ
  0.000000  0.000000  0.000000    0.12500000   1 t-inv F
  0.500000  0.000000 -0.000000    0.12500000   2 t-inv F
  0.000000  0.500000  0.000000    0.12500000   3 t-inv F
  0.500000  0.500000 -0.000000    0.12500000   4 t-inv F
 -0.000000  0.000000  0.500000    0.12500000   5 t-inv F
  0.500000  0.000000  0.500000    0.12500000   6 t-inv F
 -0.000000  0.500000  0.500000    0.12500000   7 t-inv F
  0.500000  0.500000  0.500000    0.12500000   8 t-inv F


--------------------------------------------------------------------------------------------------------




 Dimension of arrays:
   k-points           NKPTS =      8   k-points in BZ     NKDIM =      8   number of bands    NBANDS=    512
   number of dos      NEDOS =    301   number of ions     NIONS =     64
   non local maximal  LDIM  =      6   non local SUM 2l+1 LMDIM =     18
   total plane-waves  NPLWV = 829440
   max r-space proj   IRMAX =      1   max aug-charges    IRDMAX=  22929
   dimension x,y,z NGX =    96 NGY =   96 NGZ =   90
   dimension x,y,z NGXF=   192 NGYF=  192 NGZF=  180
   support grid    NGXF=   192 NGYF=  192 NGZF=  180
   ions per type =              32  16  16
   NGX,Y,Z   is equivalent  to a cutoff of  15.18, 15.17, 14.38 a.u.
   NGXF,Y,Z  is equivalent  to a cutoff of  30.37, 30.34, 28.76 a.u.

 SYSTEM =  CuFeS2                                  
 POSCAR =  Fe16 Cu16 S32                           

 Startparameter for this run:
   NWRITE =      2    write-flag & timer
   PREC   = accura    normal or accurate (medium, high low for compatibility)
   ISTART =      0    job   : 0-new  1-cont  2-samecut
   ICHARG =      1    charge: 1-file 2-atom 10-const
   ISPIN  =      2    spin polarized calculation?
   LNONCOLLINEAR =      F non collinear calculations
   LSORBIT =      F    spin-orbit coupling
   INIWAV =      1    electr: 0-lowe 1-rand  2-diag
   LASPH  =      F    aspherical Exc in radial PAW
   METAGGA=      F    non-selfconsistent MetaGGA calc.

 Electronic Relaxation 1
   ENCUT  =  700.0 eV  51.45 Ry    7.17 a.u.  22.68 22.70 22.45*2*pi/ulx,y,z
   ENINI  =  700.0     initial cutoff
   ENAUG  =  758.2 eV  augmentation charge cutoff
   NELM   =    500;   NELMIN=  2; NELMDL=  0     # of ELM steps 
   EDIFF  = 0.1E-07   stopping-criterion for ELM
   LREAL  =      F    real-space projection
   NLSPLINE    = F    spline interpolate recip. space projectors
   LCOMPAT=      F    compatible to vasp.4.4
   GGA_COMPAT  = T    GGA compatible to vasp.4.4-vasp.4.6
   LMAXPAW     = -100 max onsite density
   LMAXMIX     =    4 max onsite mixed and CHGCAR
   VOSKOWN=      0    Vosko Wilk Nusair interpolation
   ROPT   =    0.00000   0.00000   0.00000
 Ionic relaxation
   EDIFFG = -.1E-04   stopping-criterion for IOM
   NSW    =      0    number of steps for IOM
   NBLOCK =      1;   KBLOCK =      1    inner block; outer block 
   IBRION =     -1    ionic relax: 0-MD 1-quasi-New 2-CG
   NFREE  =      0    steps in history (QN), initial steepest desc. (CG)
   ISIF   =      2    stress and relaxation
   IWAVPR =     10    prediction:  0-non 1-charg 2-wave 3-comb
   ISYM   =      2    0-nonsym 1-usesym 2-fastsym
   LCORR  =      T    Harris-Foulkes like correction to forces

   POTIM  = 0.5000    time-step for ionic-motion
   TEIN   =    0.0    initial temperature
   TEBEG  =    0.0;   TEEND  =   0.0 temperature during run
   SMASS  =  -3.00    Nose mass-parameter (am)
   estimated Nose-frequenzy (Omega)   =  0.10E-29 period in steps =****** mass=  -0.252E-26a.u.
   SCALEE = 1.0000    scale energy and forces
   NPACO  =    256;   APACO  = 16.0  distance and # of slots for P.C.
   PSTRESS=    0.0 pullay stress

  Mass of Ions in am
   POMASS =  32.07 63.55 55.85
  Ionic Valenz
   ZVAL   =   6.00 17.00 14.00
  Atomic Wigner-Seitz radii
   RWIGS  =  -1.00 -1.00 -1.00
  virtual crystal weights 
   VCA    =   1.00  1.00  1.00
   NELECT =     688.0000    total number of electrons
   NUPDOWN=      -1.0000    fix difference up-down

 DOS related values:
   EMIN   =  10.00;   EMAX   =-10.00  energy-range for DOS
   EFERMI =   0.00
   ISMEAR =    -5;   SIGMA  =   0.03  broadening in eV -4-tet -1-fermi 0-gaus

 Electronic relaxation 2 (details)
   IALGO  =     38    algorithm
   LDIAG  =      T    sub-space diagonalisation (order eigenvalues)
   LSUBROT=      F    optimize rotation matrix (better conditioning)
   TURBO    =      0    0=normal 1=particle mesh
   IRESTART =      0    0=no restart 2=restart with 2 vectors
   NREBOOT  =      0    no. of reboots
   NMIN     =      0    reboot dimension
   EREF     =   0.00    reference energy to select bands
   IMIX   =      4    mixing-type and parameters
     AMIX     =   0.40;   BMIX     =  1.00
     AMIX_MAG =   1.60;   BMIX_MAG =  1.00
     AMIN     =   0.10
     WC   =   100.;   INIMIX=   1;  MIXPRE=   1;  MAXMIX= -45

 Intra band minimization:
   WEIMIN = 0.0000     energy-eigenvalue tresh-hold
   EBREAK =  0.49E-11  absolut break condition
   DEPER  =   0.30     relativ break condition  

   TIME   =   0.40     timestep for ELM

  volume/ion in A,a.u.               =      17.96       121.21
  Fermi-wavevector in a.u.,A,eV,Ry     =   1.379642  2.607146 25.897506  1.903413
  Thomas-Fermi vector in A             =   2.504593
 
 Write flags
   LWAVE        =      T    write WAVECAR
   LDOWNSAMPLE  =      F    k-point downsampling of WAVECAR
   LCHARG       =      T    write CHGCAR
   LVTOT        =      F    write LOCPOT, total local potential
   LVHAR        =      F    write LOCPOT, Hartree potential only
   LELF         =      F    write electronic localiz. function (ELF)
   LORBIT       =     11    0 simple, 1 ext, 2 COOP (PROOUT), +10 PAW based schemes


 Dipole corrections
   LMONO  =      F    monopole corrections only (constant potential shift)
   LDIPOL =      F    correct potential (dipole corrections)
   IDIPOL =      0    1-x, 2-y, 3-z, 4-all directions 
   EPSILON=  1.0000000 bulk dielectric constant

 LDA+U is selected, type is set to LDAUTYPE =  2
   angular momentum for each species LDAUL =     2    2    2
   U (eV)           for each species LDAUU =   0.0  0.1  4.7
   J (eV)           for each species LDAUJ =   0.0  0.0  0.0
 Exchange correlation treatment:
   GGA     =    PS    GGA type
   LEXCH   =    14    internal setting for exchange type
   VOSKOWN=      0    Vosko Wilk Nusair interpolation
   LHFCALC =     F    Hartree Fock is set to
   LHFONE  =     F    Hartree Fock one center treatment
   AEXX    =    0.0000 exact exchange contribution

 Linear response parameters
   LEPSILON=     F    determine dielectric tensor
   LRPA    =     F    only Hartree local field effects (RPA)
   LNABLA  =     F    use nabla operator in PAW spheres
   LVEL    =     F    velocity operator in full k-point grid
   LINTERFAST=   F  fast interpolation
   KINTER  =     0    interpolate to denser k-point grid
   CSHIFT  =0.1000    complex shift for real part using Kramers Kronig
   OMEGAMAX=  -1.0    maximum frequency
   DEG_THRESHOLD= 0.2000000E-02 threshold for treating states as degnerate
   RTIME   =   -0.100 relaxation time in fs
  (WPLASMAI=    0.000 imaginary part of plasma frequency in eV, 0.658/RTIME)
   DFIELD  = 0.0000000 0.0000000 0.0000000 field for delta impulse in time
 
 Orbital magnetization related:
   ORBITALMAG=     F  switch on orbital magnetization
   LCHIMAG   =     F  perturbation theory with respect to B field
   DQ        =  0.001000  dq finite difference perturbation B field
   LLRAUG    =     F  two centre corrections for induced B field

 PEAD related settings:
   LPEAD      =     T    switch on PEAD
   IPEAD      =     4    finite difference order for dpsi/dk
   LCALCPOL   =     T    calculate macroscopic polarization
   LCALCEPS   =     F    calculate dielectric tensor
   EFIELD_PEAD=    0.0000    0.0000    0.0000
   SKIP_EDOTP =     F
   LRPA       =     F
   SKIP_SCF   =     F


--------------------------------------------------------------------------------------------------------


 Static calculation
 charge density and potential will be updated during run
 spin polarized calculation
 Variant of blocked Davidson
 Davidson routine will perform the subspace rotation
 perform sub-space diagonalisation
    after iterative eigenvector-optimisation
 modified Broyden-mixing scheme, WC =      100.0
 initial mixing is a Kerker type mixing with AMIX =  0.4000 and BMIX =      1.0000
 Hartree-type preconditioning will be used
 using additional bands          168
 reciprocal scheme for non local part
 use partial core corrections
 calculate Harris-corrections to forces 
   (improved forces if not selfconsistent)
 use gradient corrections 
 use of overlap-Matrix (Vanderbilt PP)
 Fermi weights with tetrahedron method with Bloechl corrections


--------------------------------------------------------------------------------------------------------


  energy-cutoff  :      700.00
  volume of cell :     1149.51
      direct lattice vectors                 reciprocal lattice vectors
    10.508087000  0.000000000  0.256793000     0.095221666  0.000000000 -0.002326994
     0.000000000 10.521727000  0.000000000     0.000000000  0.095041432  0.000000000
     0.254227000  0.000000000 10.403085000    -0.002350481  0.000000000  0.096182772

  length of vectors
    10.511224241 10.521727000 10.406190892     0.095250095  0.095041432  0.096211488


 
 k-points in units of 2pi/SCALE and weight: Automatic mesh                          
   0.00000000  0.00000000  0.00000000       0.125
   0.04761083  0.00000000 -0.00116350       0.125
   0.00000000  0.04752072  0.00000000       0.125
   0.04761083  0.04752072 -0.00116350       0.125
  -0.00117524  0.00000000  0.04809139       0.125
   0.04643559  0.00000000  0.04692789       0.125
  -0.00117524  0.04752072  0.04809139       0.125
   0.04643559  0.04752072  0.04692789       0.125
 
 k-points in reciprocal lattice and weights: Automatic mesh                          
   0.00000000  0.00000000  0.00000000       0.125
   0.50000000  0.00000000 -0.00000000       0.125
   0.00000000  0.50000000  0.00000000       0.125
   0.50000000  0.50000000 -0.00000000       0.125
  -0.00000000  0.00000000  0.50000000       0.125
   0.50000000  0.00000000  0.50000000       0.125
  -0.00000000  0.50000000  0.50000000       0.125
   0.50000000  0.50000000  0.50000000       0.125
 
 position of ions in fractional coordinates (direct lattice) 
   0.12629400  0.12186500  0.12546400
   0.62629400  0.12186500  0.12546400
   0.12629400  0.62186500  0.12546400
   0.62629400  0.62186500  0.12546400
   0.37370600  0.37186500  0.12453600
   0.87370600  0.37186500  0.12453600
   0.37370600  0.87186500  0.12453600
   0.87370600  0.87186500  0.12453600
   0.12500000  0.37204400  0.87500000
   0.62500000  0.37204400  0.87500000
   0.12500000  0.87204400  0.87500000
   0.62500000  0.87204400  0.87500000
   0.37500000  0.12398900  0.87500000
   0.87500000  0.12398900  0.87500000
   0.37500000  0.62398900  0.87500000
   0.87500000  0.62398900  0.87500000
   0.12370600  0.12186500  0.62453600
   0.62370600  0.12186500  0.62453600
   0.12370600  0.62186500  0.62453600
   0.62370600  0.62186500  0.62453600
   0.37629400  0.37186500  0.62546400
   0.87629400  0.37186500  0.62546400
   0.37629400  0.87186500  0.62546400
   0.87629400  0.87186500  0.62546400
   0.37500000  0.12204400  0.37500000
   0.87500000  0.12204400  0.37500000
   0.37500000  0.62204400  0.37500000
   0.87500000  0.62204400  0.37500000
   0.12500000  0.37398900  0.37500000
   0.62500000  0.37398900  0.37500000
   0.12500000  0.87398900  0.37500000
   0.62500000  0.87398900  0.37500000
   0.99886400  0.00259500  0.50000500
   0.49886400  0.00259500  0.50000500
   0.99886400  0.50259500  0.50000500
   0.49886400  0.50259500  0.50000500
   0.25113600  0.00259500  0.24999500
   0.75113600  0.00259500  0.24999500
   0.25113600  0.50259500  0.24999500
   0.75113600  0.50259500  0.24999500
   0.24886400  0.25259500  0.00000500
   0.74886400  0.25259500  0.00000500
   0.24886400  0.75259500  0.00000500
   0.74886400  0.75259500  0.00000500
   0.00113600  0.25259500  0.74999500
   0.50113600  0.25259500  0.74999500
   0.00113600  0.75259500  0.74999500
   0.50113600  0.75259500  0.74999500
   0.99934000  0.00252300  0.00037400
   0.49934000  0.00252300  0.00037400
   0.99934000  0.50252300  0.00037400
   0.49934000  0.50252300  0.00037400
   0.25066000  0.00252300  0.74962600
   0.75066000  0.00252300  0.74962600
   0.25066000  0.50252300  0.74962600
   0.75066000  0.50252300  0.74962600
   0.24934000  0.25252300  0.50037400
   0.74934000  0.25252300  0.50037400
   0.24934000  0.75252300  0.50037400
   0.74934000  0.75252300  0.50037400
   0.00066000  0.25252300  0.24962600
   0.50066000  0.25252300  0.24962600
   0.00066000  0.75252300  0.24962600
   0.50066000  0.75252300  0.24962600
 
 position of ions in cartesian coordinates  (Angst):
   1.35900468  1.28223026  1.33764407
   6.61304818  1.28223026  1.46604057
   1.35900468  6.54309376  1.33764407
   6.61304818  6.54309376  1.46604057
   3.95859557  3.91266201  1.39152368
   9.21263907  3.91266201  1.51992018
   3.95859557  9.17352551  1.39152368
   9.21263907  9.17352551  1.51992018
   1.53595950  3.91454540  9.13479850
   6.79000300  3.91454540  9.26319500
   1.53595950  9.17540890  9.13479850
   6.79000300  9.17540890  9.26319500
   4.16298125  1.30457841  9.19899675
   9.41702475  1.30457841  9.32739325
   4.16298125  6.56544191  9.19899675
   9.41702475  6.56544191  9.32739325
   1.45868732  1.28223026  6.52886793
   6.71273082  1.28223026  6.65726443
   1.45868732  6.54309376  6.52886793
   6.71273082  6.54309376  6.65726443
   4.11313993  3.91266201  6.60338482
   9.36718343  3.91266201  6.73178132
   4.11313993  9.17352551  6.60338482
   9.36718343  9.17352551  6.73178132
   4.03586775  1.28411365  3.99745425
   9.28991125  1.28411365  4.12585075
   4.03586775  6.54497715  3.99745425
   9.28991125  6.54497715  4.12585075
   1.40884600  3.93501016  3.93325600
   6.66288950  3.93501016  4.06165250
   1.40884600  9.19587366  3.93325600
   6.66288950  9.19587366  4.06165250
  10.62326458  0.02730388  5.45809580
   5.36922108  0.02730388  5.32969930
  10.62326458  5.28816738  5.45809580
   5.36922108  5.28816738  5.32969930
   2.70251442  0.02730388  2.66520920
   7.95655792  0.02730388  2.79360570
   2.70251442  5.28816738  2.66520920
   7.95655792  5.28816738  2.79360570
   2.61508583  2.65773563  0.06395855
   7.86912933  2.65773563  0.19235505
   2.61508583  7.91859913  0.06395855
   7.86912933  7.91859913  0.19235505
   0.20260617  2.65773563  7.80255345
   5.45664967  2.65773563  7.93094995
   0.20260617  7.91859913  7.80255345
   5.45664967  7.91859913  7.93094995
  10.50124674  0.02654632  0.26051427
   5.24720324  0.02654632  0.13211777
  10.50124674  5.28740982  0.26051427
   5.24720324  5.28740982  0.13211777
   2.82453226  0.02654632  7.86279073
   8.07857576  0.02654632  7.99118723
   2.82453226  5.28740982  7.86279073
   8.07857576  5.28740982  7.99118723
   2.74729499  2.65697807  5.26946202
   8.00133849  2.65697807  5.39785852
   2.74729499  7.91784157  5.26946202
   8.00133849  7.91784157  5.39785852
   0.07039701  2.65697807  2.59704998
   5.32444051  2.65697807  2.72544648
   0.07039701  7.91784157  2.59704998
   5.32444051  7.91784157  2.72544648
 


--------------------------------------------------------------------------------------------------------


 k-point  1 :   0.0000 0.0000 0.0000  plane waves:   48371
 k-point  2 :   0.5000 0.0000-0.0000  plane waves:   48374
 k-point  3 :   0.0000 0.5000 0.0000  plane waves:   48354
 k-point  4 :   0.5000 0.5000-0.0000  plane waves:   48364
 k-point  5 :  -0.0000 0.0000 0.5000  plane waves:   48354
 k-point  6 :   0.5000 0.0000 0.5000  plane waves:   48360
 k-point  7 :  -0.0000 0.5000 0.5000  plane waves:   48328
 k-point  8 :   0.5000 0.5000 0.5000  plane waves:   48268

 maximum and minimum number of plane-waves per node :     48374    48268

 maximum number of plane-waves:     48374
 maximum index in each direction: 
   IXMAX=   22   IYMAX=   22   IZMAX=   22
   IXMIN=  -23   IYMIN=  -23   IZMIN=  -22


 serial   3D FFT for wavefunctions
 parallel 3D FFT for charge:
    minimum data exchange during FFTs selected (reduces bandwidth)


 total amount of memory used by VASP MPI-rank0   348353. kBytes
=======================================================================

   base      :      30000. kBytes
   nonl-proj :     216760. kBytes
   fftplans  :       4588. kBytes
   grid      :      69719. kBytes
   one-center:       1990. kBytes
   wavefun   :      25296. kBytes
 
     INWAV:  cpu time    0.0000: real time    0.0000
 Broyden mixing: mesh for mixing (old mesh)
   NGX = 45   NGY = 45   NGZ = 45
  (NGX  =192   NGY  =192   NGZ  =180)
  gives a total of  91125 points

 initial charge density was supplied:
 number of electron     687.9999924 magnetization       0.0000000
 keeping initial charge density in first step


--------------------------------------------------------------------------------------------------------


 Maximum index for augmentation-charges          899 (set IRDMAX)


--------------------------------------------------------------------------------------------------------


 First call to EWALD:  gamma=   0.169
 Maximum number of real-space cells 3x 3x 3
 Maximum number of reciprocal cells 3x 3x 3

    FEWALD:  cpu time    0.0030: real time    0.0030


--------------------------------------- Iteration      1(   1)  ---------------------------------------


    POTLOK:  cpu time    0.3644: real time    0.4076
    SETDIJ:  cpu time    0.0139: real time    0.0140
     EDDAV:  cpu time   83.2541: real time   83.9397
 BZINTS: Fermi energy: 14.787520;688.000000 electrons
         Band energy:***********;  BLOECHL correction: -0.011130
       DOS:  cpu time    0.0414: real time    0.0416
    --------------------------------------------
      LOOP:  cpu time   83.6738: real time   84.4029

 eigenvalue-minimisations  : 16384
 total energy-change (2. order) : 0.6026481E+04  (-0.5178118E+05)
 number of electron     687.9999924 magnetization       0.0000000
 augmentation part      687.9999924 magnetization       0.0000000

 Free energy of the ion-electron system (eV)
  ---------------------------------------------------
  alpha Z        PSCENC =      2358.52364974
  Ewald energy   TEWEN  =    -62498.31897842
  -Hartree energ DENC   =    -42787.66067881
  -exchange      EXHF   =         0.00000000
  -V(xc)+E(xc)   XCENC  =      3282.15417227
  PAW double counting   =    112137.10810081  -115828.64214528
  entropy T*S    EENTRO =         0.00000000
  eigenvalues    EBANDS =     -4656.74872249
  atomic energy  EATOM  =    114020.06510763
  Solvation  Ediel_sol  =         0.00000000
  ---------------------------------------------------
  free energy    TOTEN  =      6026.48050545 eV

  energy without entropy =     6026.48050545  energy(sigma->0) =     6026.48050545


--------------------------------------------------------------------------------------------------------




--------------------------------------- Iteration      1(   2)  ---------------------------------------


     EDDAV:  cpu time   99.2390: real time   99.9960
 BZINTS: Fermi energy:  5.365966;688.000000 electrons
         Band energy:***********;  BLOECHL correction: -0.002186
       DOS:  cpu time    0.0312: real time    0.0313
    --------------------------------------------
      LOOP:  cpu time   99.2702: real time  100.0273

 eigenvalue-minimisations  : 18176
 total energy-change (2. order) :-0.6129445E+04  (-0.6021806E+04)
 number of electron     687.9999924 magnetization       0.0000000
 augmentation part      687.9999924 magnetization       0.0000000

 Free energy of the ion-electron system (eV)
  ---------------------------------------------------
  alpha Z        PSCENC =      2358.52364974
  Ewald energy   TEWEN  =    -62498.31897842
  -Hartree energ DENC   =    -42787.66067881
  -exchange      EXHF   =         0.00000000
  -V(xc)+E(xc)   XCENC  =      3282.15417227
  PAW double counting   =    112137.10810081  -115828.64214528
  entropy T*S    EENTRO =         0.00000000
  eigenvalues    EBANDS =    -10786.19374313
  atomic energy  EATOM  =    114020.06510763
  Solvation  Ediel_sol  =         0.00000000
  ---------------------------------------------------
  free energy    TOTEN  =      -102.96451518 eV

  energy without entropy =     -102.96451518  energy(sigma->0) =     -102.96451518


--------------------------------------------------------------------------------------------------------




--------------------------------------- Iteration      1(   3)  ---------------------------------------


     EDDAV:  cpu time  161.5250: real time  162.6818
 BZINTS: Fermi energy:  4.821638;688.000000 electrons
         Band energy:***********;  BLOECHL correction:  0.000000
       DOS:  cpu time    0.0053: real time    0.0054
    --------------------------------------------
      LOOP:  cpu time  161.5304: real time  162.6872

 eigenvalue-minimisations  : 22784
 total energy-change (2. order) :-0.2462418E+03  (-0.2454439E+03)
 number of electron     687.9999924 magnetization       0.0000000
 augmentation part      687.9999924 magnetization       0.0000000

 Free energy of the ion-electron system (eV)
  ---------------------------------------------------
  alpha Z        PSCENC =      2358.52364974
  Ewald energy   TEWEN  =    -62498.31897842
  -Hartree energ DENC   =    -42787.66067881
  -exchange      EXHF   =         0.00000000
  -V(xc)+E(xc)   XCENC  =      3282.15417227
  PAW double counting   =    112137.10810081  -115828.64214528
  entropy T*S    EENTRO =         0.00000000
  eigenvalues    EBANDS =    -11032.43556536
  atomic energy  EATOM  =    114020.06510763
  Solvation  Ediel_sol  =         0.00000000
  ---------------------------------------------------
  free energy    TOTEN  =      -349.20633742 eV

  energy without entropy =     -349.20633742  energy(sigma->0) =     -349.20633742


--------------------------------------------------------------------------------------------------------




--------------------------------------- Iteration      1(   4)  ---------------------------------------


     EDDAV:  cpu time  124.4585: real time  125.3705
 BZINTS: Fermi energy:  4.861913;688.000000 electrons
         Band energy:***********;  BLOECHL correction:  0.000000
       DOS:  cpu time    0.0066: real time    0.0066
    --------------------------------------------
      LOOP:  cpu time  124.4651: real time  125.3771

 eigenvalue-minimisations  : 19456
 total energy-change (2. order) :-0.3388918E+01  (-0.3388778E+01)
 number of electron     687.9999924 magnetization       0.0000000
 augmentation part      687.9999924 magnetization       0.0000000

 Free energy of the ion-electron system (eV)
  ---------------------------------------------------
  alpha Z        PSCENC =      2358.52364974
  Ewald energy   TEWEN  =    -62498.31897842
  -Hartree energ DENC   =    -42787.66067881
  -exchange      EXHF   =         0.00000000
  -V(xc)+E(xc)   XCENC  =      3282.15417227
  PAW double counting   =    112137.10810081  -115828.64214528
  entropy T*S    EENTRO =         0.00000000
  eigenvalues    EBANDS =    -11035.82448298
  atomic energy  EATOM  =    114020.06510763
  Solvation  Ediel_sol  =         0.00000000
  ---------------------------------------------------
  free energy    TOTEN  =      -352.59525504 eV

  energy without entropy =     -352.59525504  energy(sigma->0) =     -352.59525504


--------------------------------------------------------------------------------------------------------




--------------------------------------- Iteration      1(   5)  ---------------------------------------


     EDDAV:  cpu time  153.6568: real time  154.7203
 BZINTS: Fermi energy:  4.845297;688.000000 electrons
         Band energy:***********;  BLOECHL correction:  0.000000
       DOS:  cpu time    0.0053: real time    0.0053
    CHARGE:  cpu time    1.4110: real time    1.4214
    MIXING:  cpu time    0.0058: real time    0.0059
    --------------------------------------------
      LOOP:  cpu time  155.0789: real time  156.1530

 eigenvalue-minimisations  : 22272
 total energy-change (2. order) :-0.1054953E+00  (-0.1054948E+00)
 number of electron     688.0000128 magnetization       0.0000000
 augmentation part      284.4549776 magnetization       0.0000000

 Broyden mixing:
  rms(total) = 0.38297E+01    rms(broyden)= 0.38292E+01
  rms(prec ) = 0.43029E+01
  weight for this iteration     100.00

 Free energy of the ion-electron system (eV)
  ---------------------------------------------------
  alpha Z        PSCENC =      2358.52364974
  Ewald energy   TEWEN  =    -62498.31897842
  -Hartree energ DENC   =    -42787.66067881
  -exchange      EXHF   =         0.00000000
  -V(xc)+E(xc)   XCENC  =      3282.15417227
  PAW double counting   =    112137.10810081  -115828.64214528
  entropy T*S    EENTRO =         0.00000000
  eigenvalues    EBANDS =    -11035.92997830
  atomic energy  EATOM  =    114020.06510763
  Solvation  Ediel_sol  =         0.00000000
  ---------------------------------------------------
  free energy    TOTEN  =      -352.70075035 eV

  energy without entropy =     -352.70075035  energy(sigma->0) =     -352.70075035


--------------------------------------------------------------------------------------------------------




--------------------------------------- Iteration      1(   6)  ---------------------------------------


    POTLOK:  cpu time    0.1198: real time    0.1208
    SETDIJ:  cpu time    0.0126: real time    0.0126
     EDDAV:  cpu time  183.7184: real time  184.9762
 BZINTS: Fermi energy:  4.971696;688.000000 electrons
         Band energy:***********;  BLOECHL correction:  0.000000
       DOS:  cpu time    0.0052: real time    0.0052
    CHARGE:  cpu time    1.4051: real time    1.4149
    MIXING:  cpu time    0.0024: real time    0.0128
    --------------------------------------------
      LOOP:  cpu time  185.2636: real time  186.5426

 eigenvalue-minimisations  : 26368
 total energy-change (2. order) : 0.1868870E+02  (-0.2056208E+01)
 number of electron     688.0000126 magnetization       0.0000000
 augmentation part      280.7473845 magnetization       0.0000000

 Broyden mixing:
  rms(total) = 0.21343E+01    rms(broyden)= 0.21343E+01
  rms(prec ) = 0.23862E+01
  weight for this iteration     100.00

 eigenvalues of (default mixing * dielectric matrix)
  average eigenvalue GAMMA=   0.7935
  0.7935

 Free energy of the ion-electron system (eV)
  ---------------------------------------------------
  alpha Z        PSCENC =      2358.52364974
  Ewald energy   TEWEN  =    -62498.31897842
  -Hartree energ DENC   =    -42999.87656319
  -exchange      EXHF   =         0.00000000
  -V(xc)+E(xc)   XCENC  =      3287.49271069
  PAW double counting   =    114177.68802868  -117895.89597316
  entropy T*S    EENTRO =         0.00000000
  eigenvalues    EBANDS =    -10783.69003166
  atomic energy  EATOM  =    114020.06510763
  Solvation  Ediel_sol  =         0.00000000
  ---------------------------------------------------
  free energy    TOTEN  =      -334.01204970 eV

  energy without entropy =     -334.01204970  energy(sigma->0) =     -334.01204970


--------------------------------------------------------------------------------------------------------




--------------------------------------- Iteration      1(   7)  ---------------------------------------


    POTLOK:  cpu time    0.1206: real time    0.1216
    SETDIJ:  cpu time    0.0126: real time    0.0126
     EDDAV:  cpu time  142.7632: real time  143.7743
 BZINTS: Fermi energy:  4.921719;688.000000 electrons
         Band energy:***********;  BLOECHL correction:  0.000000
       DOS:  cpu time    0.0061: real time    0.0061
    CHARGE:  cpu time    1.4056: real time    1.4155
    MIXING:  cpu time    0.0015: real time    0.0031
    --------------------------------------------
      LOOP:  cpu time  144.3096: real time  145.3332

 eigenvalue-minimisations  : 21760
 total energy-change (2. order) : 0.5223201E+01  (-0.1266476E+01)
 number of electron     688.0000128 magnetization       0.0000000
 augmentation part      283.2431233 magnetization       0.0000000

 Broyden mixing:
  rms(total) = 0.16535E+01    rms(broyden)= 0.16535E+01
  rms(prec ) = 0.17372E+01
  weight for this iteration     100.00

 eigenvalues of (default mixing * dielectric matrix)
  average eigenvalue GAMMA=   0.9118
  1.3334  0.4902

 Free energy of the ion-electron system (eV)
  ---------------------------------------------------
  alpha Z        PSCENC =      2358.52364974
  Ewald energy   TEWEN  =    -62498.31897842
  -Hartree energ DENC   =    -42868.86302876
  -exchange      EXHF   =         0.00000000
  -V(xc)+E(xc)   XCENC  =      3285.54718190
  PAW double counting   =    113680.16473190  -117364.73027840
  entropy T*S    EENTRO =         0.00000000
  eigenvalues    EBANDS =    -10941.17723427
  atomic energy  EATOM  =    114020.06510763
  Solvation  Ediel_sol  =         0.00000000
  ---------------------------------------------------
  free energy    TOTEN  =      -328.78884869 eV

  energy without entropy =     -328.78884869  energy(sigma->0) =     -328.78884869


--------------------------------------------------------------------------------------------------------




--------------------------------------- Iteration      1(   8)  ---------------------------------------


    POTLOK:  cpu time    0.1186: real time    0.1217
    SETDIJ:  cpu time    0.0126: real time    0.0126
     EDDAV:  cpu time  147.5012: real time  148.5399
 BZINTS: Fermi energy:  4.940692;688.000000 electrons
         Band energy:***********;  BLOECHL correction:  0.000000
       DOS:  cpu time    0.0061: real time    0.0061
    CHARGE:  cpu time    1.7175: real time    1.7282
    MIXING:  cpu time    0.0015: real time    0.0015
    --------------------------------------------
      LOOP:  cpu time  149.3574: real time  150.4100

 eigenvalue-minimisations  : 22016
 total energy-change (2. order) : 0.9085484E+00  (-0.4302869E+00)
 number of electron     688.0000128 magnetization       0.0000000
 augmentation part      282.8228135 magnetization       0.0000000

 Broyden mixing:
  rms(total) = 0.59804E+00    rms(broyden)= 0.59804E+00
  rms(prec ) = 0.63034E+00
  weight for this iteration     100.00

 eigenvalues of (default mixing * dielectric matrix)
  average eigenvalue GAMMA=   1.0241
  1.8740  0.6962  0.5020

 Free energy of the ion-electron system (eV)
  ---------------------------------------------------
  alpha Z        PSCENC =      2358.52364974
  Ewald energy   TEWEN  =    -62498.31897842
  -Hartree energ DENC   =    -42900.53227060
  -exchange      EXHF   =         0.00000000
  -V(xc)+E(xc)   XCENC  =      3285.81032256
  PAW double counting   =    113217.22697497  -116908.58299779
  entropy T*S    EENTRO =         0.00000000
  eigenvalues    EBANDS =    -10902.07210840
  atomic energy  EATOM  =    114020.06510763
  Solvation  Ediel_sol  =         0.00000000
  ---------------------------------------------------
  free energy    TOTEN  =      -327.88030031 eV

  energy without entropy =     -327.88030031  energy(sigma->0) =     -327.88030031


--------------------------------------------------------------------------------------------------------




--------------------------------------- Iteration      1(   9)  ---------------------------------------


    POTLOK:  cpu time    0.1349: real time    0.1358
    SETDIJ:  cpu time    0.0166: real time    0.0166
     EDDAV:  cpu time  157.6605: real time  158.7527
 BZINTS: Fermi energy:  4.970687;688.000000 electrons
         Band energy:***********;  BLOECHL correction:  0.000000
       DOS:  cpu time    0.0060: real time    0.0060
    CHARGE:  cpu time    1.4047: real time    1.4142
    MIXING:  cpu time    0.0013: real time    0.0013
    --------------------------------------------
      LOOP:  cpu time  159.2239: real time  160.3267

 eigenvalue-minimisations  : 23040
 total energy-change (2. order) : 0.5463426E-01  (-0.1058399E+00)
 number of electron     688.0000127 magnetization       0.0000000
 augmentation part      282.0714908 magnetization       0.0000000

 Broyden mixing:
  rms(total) = 0.30336E+00    rms(broyden)= 0.30335E+00
  rms(prec ) = 0.32523E+00
  weight for this iteration     100.00

 eigenvalues of (default mixing * dielectric matrix)
  average eigenvalue GAMMA=   1.0638
  1.8235  1.2608  0.6583  0.5128

 Free energy of the ion-electron system (eV)
  ---------------------------------------------------
  alpha Z        PSCENC =      2358.52364974
  Ewald energy   TEWEN  =    -62498.31897842
  -Hartree energ DENC   =    -42949.46538013
  -exchange      EXHF   =         0.00000000
  -V(xc)+E(xc)   XCENC  =      3287.00364458
  PAW double counting   =    113037.82810673  -116734.29405870
  entropy T*S    EENTRO =         0.00000000
  eigenvalues    EBANDS =    -10849.16775748
  atomic energy  EATOM  =    114020.06510763
  Solvation  Ediel_sol  =         0.00000000
  ---------------------------------------------------
  free energy    TOTEN  =      -327.82566605 eV

  energy without entropy =     -327.82566605  energy(sigma->0) =     -327.82566605


--------------------------------------------------------------------------------------------------------




--------------------------------------- Iteration      1(  10)  ---------------------------------------


    POTLOK:  cpu time    0.1175: real time    0.1218
    SETDIJ:  cpu time    0.0126: real time    0.0127
     EDDAV:  cpu time  157.0815: real time  158.1672
 BZINTS: Fermi energy:  4.938506;688.000000 electrons
         Band energy:***********;  BLOECHL correction:  0.000000
       DOS:  cpu time    0.0060: real time    0.0060
    CHARGE:  cpu time    1.4019: real time    1.4118
    MIXING:  cpu time    0.0015: real time    0.0015
    --------------------------------------------
      LOOP:  cpu time  158.6211: real time  159.7210

 eigenvalue-minimisations  : 22528
 total energy-change (2. order) :-0.6422147E-01  (-0.1123777E+00)
 number of electron     688.0000128 magnetization       0.0000000
 augmentation part      282.1623551 magnetization       0.0000000

 Broyden mixing:
  rms(total) = 0.34869E+00    rms(broyden)= 0.34868E+00
  rms(prec ) = 0.41103E+00
  weight for this iteration     100.00

 eigenvalues of (default mixing * dielectric matrix)
  average eigenvalue GAMMA=   0.9592
  1.8437  1.4452  0.6289  0.5564  0.3216

 Free energy of the ion-electron system (eV)
  ---------------------------------------------------
  alpha Z        PSCENC =      2358.52364974
  Ewald energy   TEWEN  =    -62498.31897842
  -Hartree energ DENC   =    -42927.77474474
  -exchange      EXHF   =         0.00000000
  -V(xc)+E(xc)   XCENC  =      3286.06923235
  PAW double counting   =    112731.87665840  -116424.73146159
  entropy T*S    EENTRO =         0.00000000
  eigenvalues    EBANDS =    -10873.59935089
  atomic energy  EATOM  =    114020.06510763
  Solvation  Ediel_sol  =         0.00000000
  ---------------------------------------------------
  free energy    TOTEN  =      -327.88988752 eV

  energy without entropy =     -327.88988752  energy(sigma->0) =     -327.88988752


--------------------------------------------------------------------------------------------------------




--------------------------------------- Iteration      1(  11)  ---------------------------------------


    POTLOK:  cpu time    0.1206: real time    0.1221
    SETDIJ:  cpu time    0.0125: real time    0.0126
     EDDAV:  cpu time  116.0812: real time  116.9335
 BZINTS: Fermi energy:  4.953217;688.000000 electrons
         Band energy:***********;  BLOECHL correction:  0.000000
       DOS:  cpu time    0.0060: real time    0.0061
    CHARGE:  cpu time    1.4024: real time    1.4121
    MIXING:  cpu time    0.0016: real time    0.0213
    --------------------------------------------
      LOOP:  cpu time  117.6243: real time  118.5076

 eigenvalue-minimisations  : 19200
 total energy-change (2. order) : 0.4389882E-01  (-0.4865500E-01)
 number of electron     688.0000128 magnetization      -0.0000000
 augmentation part      282.2488767 magnetization      -0.0000000

 Broyden mixing:
  rms(total) = 0.10918E+00    rms(broyden)= 0.10918E+00
  rms(prec ) = 0.11121E+00
  weight for this iteration     100.00

 eigenvalues of (default mixing * dielectric matrix)
  average eigenvalue GAMMA=   1.0948
  2.1017  2.1017  0.7835  0.6216  0.6216  0.3385

 Free energy of the ion-electron system (eV)
  ---------------------------------------------------
  alpha Z        PSCENC =      2358.52364974
  Ewald energy   TEWEN  =    -62498.31897842
  -Hartree energ DENC   =    -42932.57280815
  -exchange      EXHF   =         0.00000000
  -V(xc)+E(xc)   XCENC  =      3286.50524019
  PAW double counting   =    112580.26783215  -116272.94023479
  entropy T*S    EENTRO =         0.00000000
  eigenvalues    EBANDS =    -10869.37579703
  atomic energy  EATOM  =    114020.06510763
  Solvation  Ediel_sol  =         0.00000000
  ---------------------------------------------------
  free energy    TOTEN  =      -327.84598869 eV

  energy without entropy =     -327.84598869  energy(sigma->0) =     -327.84598869


--------------------------------------------------------------------------------------------------------




--------------------------------------- Iteration      1(  12)  ---------------------------------------


    POTLOK:  cpu time    0.1217: real time    0.1239
    SETDIJ:  cpu time    0.0126: real time    0.0126
     EDDAV:  cpu time  152.4713: real time  153.5233
 BZINTS: Fermi energy:  4.953871;688.000000 electrons
         Band energy:***********;  BLOECHL correction:  0.000000
       DOS:  cpu time    0.0060: real time    0.0061
    CHARGE:  cpu time    1.4077: real time    1.4166
    MIXING:  cpu time    0.0018: real time    0.0018
    --------------------------------------------
      LOOP:  cpu time  154.0212: real time  155.0843

 eigenvalue-minimisations  : 22016
 total energy-change (2. order) :-0.1650647E-01  (-0.5295208E-02)
 number of electron     688.0000128 magnetization       0.0000000
 augmentation part      282.2187994 magnetization       0.0000000

 Broyden mixing:
  rms(total) = 0.45155E-01    rms(broyden)= 0.45152E-01
  rms(prec ) = 0.49075E-01
  weight for this iteration     100.00

 eigenvalues of (default mixing * dielectric matrix)
  average eigenvalue GAMMA=   1.1146
  2.2387  2.2387  1.0359  0.6941  0.6260  0.6260  0.3425

 Free energy of the ion-electron system (eV)
  ---------------------------------------------------
  alpha Z        PSCENC =      2358.52364974
  Ewald energy   TEWEN  =    -62498.31897842
  -Hartree energ DENC   =    -42935.60660594
  -exchange      EXHF   =         0.00000000
  -V(xc)+E(xc)   XCENC  =      3286.56802095
  PAW double counting   =    112374.68848289  -116068.33483218
  entropy T*S    EENTRO =         0.00000000
  eigenvalues    EBANDS =    -10865.44733983
  atomic energy  EATOM  =    114020.06510763
  Solvation  Ediel_sol  =         0.00000000
  ---------------------------------------------------
  free energy    TOTEN  =      -327.86249516 eV

  energy without entropy =     -327.86249516  energy(sigma->0) =     -327.86249516


--------------------------------------------------------------------------------------------------------




--------------------------------------- Iteration      1(  13)  ---------------------------------------


    POTLOK:  cpu time    0.1199: real time    0.1208
    SETDIJ:  cpu time    0.0126: real time    0.0126
     EDDAV:  cpu time  141.4597: real time  142.4475
 BZINTS: Fermi energy:  4.952646;688.000000 electrons
         Band energy:***********;  BLOECHL correction:  0.000000
       DOS:  cpu time    0.0060: real time    0.0061
    CHARGE:  cpu time    1.4060: real time    1.4153
    MIXING:  cpu time    0.0016: real time    0.0016
    --------------------------------------------
      LOOP:  cpu time  143.0059: real time  144.0039

 eigenvalue-minimisations  : 21248
 total energy-change (2. order) :-0.3106556E-02  (-0.1179427E-02)
 number of electron     688.0000128 magnetization       0.0000000
 augmentation part      282.2309922 magnetization       0.0000000

 Broyden mixing:
  rms(total) = 0.25279E-01    rms(broyden)= 0.25278E-01
  rms(prec ) = 0.27127E-01
  weight for this iteration     100.00

 eigenvalues of (default mixing * dielectric matrix)
  average eigenvalue GAMMA=   1.1293
  2.2951  2.2951  1.1797  1.0593  0.6699  0.5956  0.5956  0.3439

 Free energy of the ion-electron system (eV)
  ---------------------------------------------------
  alpha Z        PSCENC =      2358.52364974
  Ewald energy   TEWEN  =    -62498.31897842
  -Hartree energ DENC   =    -42933.99070432
  -exchange      EXHF   =         0.00000000
  -V(xc)+E(xc)   XCENC  =      3286.52938018
  PAW double counting   =    112297.37770998  -115990.71809963
  entropy T*S    EENTRO =         0.00000000
  eigenvalues    EBANDS =    -10867.33366688
  atomic energy  EATOM  =    114020.06510763
  Solvation  Ediel_sol  =         0.00000000
  ---------------------------------------------------
  free energy    TOTEN  =      -327.86560172 eV

  energy without entropy =     -327.86560172  energy(sigma->0) =     -327.86560172


--------------------------------------------------------------------------------------------------------




--------------------------------------- Iteration      1(  14)  ---------------------------------------


    POTLOK:  cpu time    0.1247: real time    0.1288
    SETDIJ:  cpu time    0.0129: real time    0.0129
     EDDAV:  cpu time  148.0378: real time  149.0682
 BZINTS: Fermi energy:  4.953007;688.000000 electrons
         Band energy:***********;  BLOECHL correction:  0.000000
       DOS:  cpu time    0.0060: real time    0.0060
    CHARGE:  cpu time    1.4080: real time    1.4173
    MIXING:  cpu time    0.0016: real time    0.0016
    --------------------------------------------
      LOOP:  cpu time  149.5910: real time  150.6350

 eigenvalue-minimisations  : 21504
 total energy-change (2. order) :-0.1320450E-02  (-0.3617643E-03)
 number of electron     688.0000128 magnetization       0.0000000
 augmentation part      282.2263981 magnetization       0.0000000

 Broyden mixing:
  rms(total) = 0.12892E-01    rms(broyden)= 0.12891E-01
  rms(prec ) = 0.13704E-01
  weight for this iteration     100.00

 eigenvalues of (default mixing * dielectric matrix)
  average eigenvalue GAMMA=   1.1839
  2.4340  2.4340  1.4314  1.4314  0.3435  0.6051  0.6051  0.7171  0.6536

 Free energy of the ion-electron system (eV)
  ---------------------------------------------------
  alpha Z        PSCENC =      2358.52364974
  Ewald energy   TEWEN  =    -62498.31897842
  -Hartree energ DENC   =    -42934.69363201
  -exchange      EXHF   =         0.00000000
  -V(xc)+E(xc)   XCENC  =      3286.55339142
  PAW double counting   =    112275.46375110  -115969.13093345
  entropy T*S    EENTRO =         0.00000000
  eigenvalues    EBANDS =    -10866.32927818
  atomic energy  EATOM  =    114020.06510763
  Solvation  Ediel_sol  =         0.00000000
  ---------------------------------------------------
  free energy    TOTEN  =      -327.86692217 eV

  energy without entropy =     -327.86692217  energy(sigma->0) =     -327.86692217


--------------------------------------------------------------------------------------------------------




--------------------------------------- Iteration      1(  15)  ---------------------------------------


    POTLOK:  cpu time    0.1210: real time    0.1220
    SETDIJ:  cpu time    0.0128: real time    0.0128
     EDDAV:  cpu time  142.2540: real time  143.2617
 BZINTS: Fermi energy:  4.953173;688.000000 electrons
         Band energy:***********;  BLOECHL correction:  0.000000
       DOS:  cpu time    0.0060: real time    0.0061
    CHARGE:  cpu time    1.4753: real time    1.4845
    MIXING:  cpu time    0.0019: real time    0.0019
    --------------------------------------------
      LOOP:  cpu time  143.8709: real time  144.8889

 eigenvalue-minimisations  : 21504
 total energy-change (2. order) :-0.6180343E-03  (-0.1567297E-03)
 number of electron     688.0000128 magnetization       0.0000000
 augmentation part      282.2221928 magnetization       0.0000000

 Broyden mixing:
  rms(total) = 0.68597E-02    rms(broyden)= 0.68590E-02
  rms(prec ) = 0.72972E-02
  weight for this iteration     100.00

 eigenvalues of (default mixing * dielectric matrix)
  average eigenvalue GAMMA=   1.2170
  2.8600  2.2563  1.8706  1.1507  1.1507  0.3436  0.6027  0.6027  0.7055  0.6272

 Free energy of the ion-electron system (eV)
  ---------------------------------------------------
  alpha Z        PSCENC =      2358.52364974
  Ewald energy   TEWEN  =    -62498.31897842
  -Hartree energ DENC   =    -42934.91298327
  -exchange      EXHF   =         0.00000000
  -V(xc)+E(xc)   XCENC  =      3286.55369144
  PAW double counting   =    112268.97035386  -115962.65618181
  entropy T*S    EENTRO =         0.00000000
  eigenvalues    EBANDS =    -10866.09219937
  atomic energy  EATOM  =    114020.06510763
  Solvation  Ediel_sol  =         0.00000000
  ---------------------------------------------------
  free energy    TOTEN  =      -327.86754020 eV

  energy without entropy =     -327.86754020  energy(sigma->0) =     -327.86754020


--------------------------------------------------------------------------------------------------------




--------------------------------------- Iteration      1(  16)  ---------------------------------------


    POTLOK:  cpu time    0.1288: real time    0.1319
    SETDIJ:  cpu time    0.0140: real time    0.0141
     EDDAV:  cpu time  145.4754: real time  146.4801
 BZINTS: Fermi energy:  4.953171;688.000000 electrons
         Band energy:***********;  BLOECHL correction:  0.000000
       DOS:  cpu time    0.0061: real time    0.0061
    CHARGE:  cpu time    1.3964: real time    1.4064
    MIXING:  cpu time    0.0020: real time    0.0027
    --------------------------------------------
      LOOP:  cpu time  147.0226: real time  148.0413

 eigenvalue-minimisations  : 20992
 total energy-change (2. order) :-0.2758503E-03  (-0.8537474E-04)
 number of electron     688.0000128 magnetization       0.0000000
 augmentation part      282.2272541 magnetization       0.0000000

 Broyden mixing:
  rms(total) = 0.45515E-02    rms(broyden)= 0.45509E-02
  rms(prec ) = 0.48995E-02
  weight for this iteration     100.00

 eigenvalues of (default mixing * dielectric matrix)
  average eigenvalue GAMMA=   1.2855
  3.2659  2.1762  2.1762  1.3845  1.3845  0.3436  0.8766  0.6004  0.6004  0.7127
  0.6192

 Free energy of the ion-electron system (eV)
  ---------------------------------------------------
  alpha Z        PSCENC =      2358.52364974
  Ewald energy   TEWEN  =    -62498.31897842
  -Hartree energ DENC   =    -42934.73009695
  -exchange      EXHF   =         0.00000000
  -V(xc)+E(xc)   XCENC  =      3286.55251895
  PAW double counting   =    112265.44284348  -115959.10714375
  entropy T*S    EENTRO =         0.00000000
  eigenvalues    EBANDS =    -10866.29571673
  atomic energy  EATOM  =    114020.06510763
  Solvation  Ediel_sol  =         0.00000000
  ---------------------------------------------------
  free energy    TOTEN  =      -327.86781605 eV

  energy without entropy =     -327.86781605  energy(sigma->0) =     -327.86781605


--------------------------------------------------------------------------------------------------------




--------------------------------------- Iteration      1(  17)  ---------------------------------------


    POTLOK:  cpu time    0.1236: real time    0.1245
    SETDIJ:  cpu time    0.0126: real time    0.0126
     EDDAV:  cpu time  117.4383: real time  118.2907
 BZINTS: Fermi energy:  4.953058;688.000000 electrons
         Band energy:***********;  BLOECHL correction:  0.000000
       DOS:  cpu time    0.0060: real time    0.0061
    CHARGE:  cpu time    1.3945: real time    1.4042
    MIXING:  cpu time    0.0019: real time    0.0019
    --------------------------------------------
      LOOP:  cpu time  118.9770: real time  119.8399

 eigenvalue-minimisations  : 18944
 total energy-change (2. order) :-0.1141272E-03  (-0.5733301E-04)
 number of electron     688.0000128 magnetization       0.0000000
 augmentation part      282.2248661 magnetization       0.0000000

 Broyden mixing:
  rms(total) = 0.24128E-02    rms(broyden)= 0.24121E-02
  rms(prec ) = 0.26070E-02
  weight for this iteration     100.00

 eigenvalues of (default mixing * dielectric matrix)
  average eigenvalue GAMMA=   1.3560
  3.9847  2.3377  2.3377  1.5280  1.5280  0.9600  0.3436  0.6003  0.6003  0.7366
  0.6983  0.6169

 Free energy of the ion-electron system (eV)
  ---------------------------------------------------
  alpha Z        PSCENC =      2358.52364974
  Ewald energy   TEWEN  =    -62498.31897842
  -Hartree energ DENC   =    -42934.79936031
  -exchange      EXHF   =         0.00000000
  -V(xc)+E(xc)   XCENC  =      3286.55262266
  PAW double counting   =    112268.55256374  -115962.24082808
  entropy T*S    EENTRO =         0.00000000
  eigenvalues    EBANDS =    -10866.20270714
  atomic energy  EATOM  =    114020.06510763
  Solvation  Ediel_sol  =         0.00000000
  ---------------------------------------------------
  free energy    TOTEN  =      -327.86793018 eV

  energy without entropy =     -327.86793018  energy(sigma->0) =     -327.86793018


--------------------------------------------------------------------------------------------------------




--------------------------------------- Iteration      1(  18)  ---------------------------------------


    POTLOK:  cpu time    0.1234: real time    0.1252
    SETDIJ:  cpu time    0.0131: real time    0.0132
     EDDAV:  cpu time  151.5711: real time  152.6181
 BZINTS: Fermi energy:  4.953044;688.000000 electrons
         Band energy:***********;  BLOECHL correction:  0.000000
       DOS:  cpu time    0.0060: real time    0.0060
    CHARGE:  cpu time    1.4024: real time    1.4126
    MIXING:  cpu time    0.0018: real time    0.3126
    --------------------------------------------
      LOOP:  cpu time  153.1177: real time  154.4878

 eigenvalue-minimisations  : 21760
 total energy-change (2. order) :-0.2201358E-04  (-0.1341581E-04)
 number of electron     688.0000128 magnetization       0.0000000
 augmentation part      282.2255777 magnetization       0.0000000

 Broyden mixing:
  rms(total) = 0.10937E-02    rms(broyden)= 0.10932E-02
  rms(prec ) = 0.11594E-02
  weight for this iteration     100.00

 eigenvalues of (default mixing * dielectric matrix)
  average eigenvalue GAMMA=   1.3546
  4.1529  2.4181  2.4181  1.7875  1.1913  1.1913  0.9243  0.3436  0.6001  0.6001
  0.7166  0.6112  0.6553

 Free energy of the ion-electron system (eV)
  ---------------------------------------------------
  alpha Z        PSCENC =      2358.52364974
  Ewald energy   TEWEN  =    -62498.31897842
  -Hartree energ DENC   =    -42934.77744207
  -exchange      EXHF   =         0.00000000
  -V(xc)+E(xc)   XCENC  =      3286.55183616
  PAW double counting   =    112270.97127572  -115964.65123457
  entropy T*S    EENTRO =         0.00000000
  eigenvalues    EBANDS =    -10866.23216638
  atomic energy  EATOM  =    114020.06510763
  Solvation  Ediel_sol  =         0.00000000
  ---------------------------------------------------
  free energy    TOTEN  =      -327.86795219 eV

  energy without entropy =     -327.86795219  energy(sigma->0) =     -327.86795219


--------------------------------------------------------------------------------------------------------




--------------------------------------- Iteration      1(  19)  ---------------------------------------


    POTLOK:  cpu time    0.1198: real time    0.1215
    SETDIJ:  cpu time    0.0127: real time    0.0128
     EDDAV:  cpu time  122.2393: real time  123.1126
 BZINTS: Fermi energy:  4.953044;688.000000 electrons
         Band energy:***********;  BLOECHL correction:  0.000000
       DOS:  cpu time    0.0060: real time    0.0060
    CHARGE:  cpu time    1.3896: real time    1.3996
    MIXING:  cpu time    0.0020: real time    0.0021
    --------------------------------------------
      LOOP:  cpu time  123.7694: real time  124.6546

 eigenvalue-minimisations  : 19200
 total energy-change (2. order) :-0.2825720E-05  (-0.1268798E-05)
 number of electron     688.0000128 magnetization       0.0000000
 augmentation part      282.2251640 magnetization       0.0000000

 Broyden mixing:
[...]
   -.416E+02 0.177E+02 -.125E+01   0.424E+02 -.179E+02 0.127E+01   -.853E+00 0.108E+00 -.151E-01   0.161E-04 0.110E-04 -.105E-05
   -.416E+02 0.177E+02 -.125E+01   0.424E+02 -.179E+02 0.127E+01   -.853E+00 0.108E+00 -.151E-01   0.161E-04 0.110E-04 -.105E-05
   -.416E+02 0.177E+02 -.125E+01   0.424E+02 -.179E+02 0.127E+01   -.853E+00 0.108E+00 -.151E-01   0.161E-04 0.110E-04 -.105E-05
   -.416E+02 0.177E+02 -.125E+01   0.424E+02 -.179E+02 0.127E+01   -.853E+00 0.108E+00 -.151E-01   0.161E-04 0.110E-04 -.105E-05
   0.416E+02 0.177E+02 0.125E+01   -.424E+02 -.179E+02 -.127E+01   0.853E+00 0.108E+00 0.151E-01   -.161E-04 0.110E-04 0.105E-05
   0.416E+02 0.177E+02 0.125E+01   -.424E+02 -.179E+02 -.127E+01   0.853E+00 0.108E+00 0.151E-01   -.161E-04 0.110E-04 0.105E-05
   0.416E+02 0.177E+02 0.125E+01   -.424E+02 -.179E+02 -.127E+01   0.853E+00 0.108E+00 0.151E-01   -.161E-04 0.110E-04 0.105E-05
   0.416E+02 0.177E+02 0.125E+01   -.424E+02 -.179E+02 -.127E+01   0.853E+00 0.108E+00 0.151E-01   -.161E-04 0.110E-04 0.105E-05
   0.236E-08 -.299E+02 -.101E-06   0.675E-13 0.307E+02 0.000E+00   -.507E-24 -.768E+00 -.165E-23   -.752E-10 0.281E-04 -.741E-09
   0.236E-08 -.299E+02 -.101E-06   0.533E-13 0.307E+02 0.702E-13   0.162E-23 -.768E+00 -.620E-24   0.676E-10 0.281E-04 0.743E-09
   0.236E-08 -.299E+02 -.101E-06   0.568E-13 0.307E+02 0.568E-13   0.164E-23 -.768E+00 -.145E-23   -.752E-10 0.281E-04 -.741E-09
   0.236E-08 -.299E+02 -.101E-06   0.853E-13 0.307E+02 0.853E-13   -.737E-24 -.768E+00 0.000E+00   0.676E-10 0.281E-04 0.743E-09
   0.113E-08 0.551E+02 0.218E-06   -.101E-12 -.561E+02 0.355E-14   -.205E-23 0.960E+00 -.103E-24   0.128E-07 0.352E-05 -.311E-09
   0.113E-08 0.551E+02 0.218E-06   -.888E-13 -.561E+02 0.178E-13   0.132E-23 0.960E+00 0.207E-24   -.128E-07 0.352E-05 0.312E-09
   0.113E-08 0.551E+02 0.218E-06   -.128E-12 -.561E+02 -.142E-13   -.646E-24 0.960E+00 0.124E-23   0.128E-07 0.352E-05 -.311E-09
   0.113E-08 0.551E+02 0.218E-06   -.114E-12 -.561E+02 0.568E-13   0.782E-24 0.960E+00 0.207E-24   -.128E-07 0.352E-05 0.312E-09
   0.309E+01 -.163E+02 0.170E+01   -.305E+01 0.157E+02 -.174E+01   -.342E-01 0.655E+00 0.285E-01   0.780E-05 0.220E-04 0.455E-06
   0.309E+01 -.163E+02 0.170E+01   -.305E+01 0.157E+02 -.174E+01   -.342E-01 0.655E+00 0.285E-01   0.775E-05 0.220E-04 0.455E-06
   0.309E+01 -.163E+02 0.170E+01   -.305E+01 0.157E+02 -.174E+01   -.342E-01 0.655E+00 0.285E-01   0.780E-05 0.219E-04 0.457E-06
   0.309E+01 -.163E+02 0.170E+01   -.305E+01 0.157E+02 -.174E+01   -.342E-01 0.655E+00 0.285E-01   0.775E-05 0.219E-04 0.457E-06
   -.309E+01 -.163E+02 -.170E+01   0.305E+01 0.157E+02 0.174E+01   0.342E-01 0.655E+00 -.285E-01   -.775E-05 0.220E-04 -.456E-06
   -.309E+01 -.163E+02 -.170E+01   0.305E+01 0.157E+02 0.174E+01   0.342E-01 0.655E+00 -.285E-01   -.781E-05 0.220E-04 -.454E-06
   -.309E+01 -.163E+02 -.170E+01   0.305E+01 0.157E+02 0.174E+01   0.342E-01 0.655E+00 -.285E-01   -.775E-05 0.219E-04 -.458E-06
   -.309E+01 -.163E+02 -.170E+01   0.305E+01 0.157E+02 0.174E+01   0.342E-01 0.655E+00 -.285E-01   -.781E-05 0.219E-04 -.455E-06
   0.309E+01 -.163E+02 0.170E+01   -.305E+01 0.157E+02 -.174E+01   -.342E-01 0.655E+00 0.285E-01   0.781E-05 0.220E-04 0.456E-06
   0.309E+01 -.163E+02 0.170E+01   -.305E+01 0.157E+02 -.174E+01   -.342E-01 0.655E+00 0.285E-01   0.775E-05 0.220E-04 0.453E-06
   0.309E+01 -.163E+02 0.170E+01   -.305E+01 0.157E+02 -.174E+01   -.342E-01 0.655E+00 0.285E-01   0.781E-05 0.219E-04 0.458E-06
   0.309E+01 -.163E+02 0.170E+01   -.305E+01 0.157E+02 -.174E+01   -.342E-01 0.655E+00 0.285E-01   0.775E-05 0.219E-04 0.456E-06
   -.309E+01 -.163E+02 -.170E+01   0.305E+01 0.157E+02 0.174E+01   0.342E-01 0.655E+00 -.285E-01   -.775E-05 0.220E-04 -.457E-06
   -.309E+01 -.163E+02 -.170E+01   0.305E+01 0.157E+02 0.174E+01   0.342E-01 0.655E+00 -.285E-01   -.780E-05 0.220E-04 -.452E-06
   -.309E+01 -.163E+02 -.170E+01   0.305E+01 0.157E+02 0.174E+01   0.342E-01 0.655E+00 -.285E-01   -.775E-05 0.219E-04 -.459E-06
   -.309E+01 -.163E+02 -.170E+01   0.305E+01 0.157E+02 0.174E+01   0.342E-01 0.655E+00 -.285E-01   -.780E-05 0.219E-04 -.454E-06
   -.433E+01 -.157E+02 0.192E+01   0.425E+01 0.149E+02 -.197E+01   0.789E-01 0.857E+00 0.347E-01   0.586E-05 0.160E-04 0.818E-05
   -.433E+01 -.157E+02 0.192E+01   0.425E+01 0.149E+02 -.197E+01   0.789E-01 0.857E+00 0.347E-01   0.581E-05 0.160E-04 0.818E-05
   -.433E+01 -.157E+02 0.192E+01   0.425E+01 0.149E+02 -.197E+01   0.789E-01 0.857E+00 0.347E-01   0.586E-05 0.160E-04 0.818E-05
   -.433E+01 -.157E+02 0.192E+01   0.425E+01 0.149E+02 -.197E+01   0.789E-01 0.857E+00 0.347E-01   0.581E-05 0.160E-04 0.818E-05
   0.433E+01 -.157E+02 -.192E+01   -.425E+01 0.149E+02 0.197E+01   -.789E-01 0.857E+00 -.347E-01   -.581E-05 0.160E-04 -.818E-05
   0.433E+01 -.157E+02 -.192E+01   -.425E+01 0.149E+02 0.197E+01   -.789E-01 0.857E+00 -.347E-01   -.586E-05 0.160E-04 -.818E-05
   0.433E+01 -.157E+02 -.192E+01   -.425E+01 0.149E+02 0.197E+01   -.789E-01 0.857E+00 -.347E-01   -.581E-05 0.160E-04 -.818E-05
   0.433E+01 -.157E+02 -.192E+01   -.425E+01 0.149E+02 0.197E+01   -.789E-01 0.857E+00 -.347E-01   -.586E-05 0.160E-04 -.818E-05
   -.433E+01 -.157E+02 0.192E+01   0.425E+01 0.149E+02 -.197E+01   0.789E-01 0.857E+00 0.347E-01   0.586E-05 0.160E-04 0.818E-05
   -.433E+01 -.157E+02 0.192E+01   0.425E+01 0.149E+02 -.197E+01   0.789E-01 0.857E+00 0.347E-01   0.581E-05 0.160E-04 0.818E-05
   -.433E+01 -.157E+02 0.192E+01   0.425E+01 0.149E+02 -.197E+01   0.789E-01 0.857E+00 0.347E-01   0.586E-05 0.160E-04 0.818E-05
   -.433E+01 -.157E+02 0.192E+01   0.425E+01 0.149E+02 -.197E+01   0.789E-01 0.857E+00 0.347E-01   0.581E-05 0.160E-04 0.818E-05
   0.433E+01 -.157E+02 -.192E+01   -.425E+01 0.149E+02 0.197E+01   -.789E-01 0.857E+00 -.347E-01   -.581E-05 0.160E-04 -.818E-05
   0.433E+01 -.157E+02 -.192E+01   -.425E+01 0.149E+02 0.197E+01   -.789E-01 0.857E+00 -.347E-01   -.586E-05 0.160E-04 -.818E-05
   0.433E+01 -.157E+02 -.192E+01   -.425E+01 0.149E+02 0.197E+01   -.789E-01 0.857E+00 -.347E-01   -.581E-05 0.160E-04 -.818E-05
   0.433E+01 -.157E+02 -.192E+01   -.425E+01 0.149E+02 0.197E+01   -.789E-01 0.857E+00 -.347E-01   -.586E-05 0.160E-04 -.818E-05
 -----------------------------------------------------------------------------------------------
   -.796E-07 -.275E+02 0.854E-05   -.437E-12 -.217E-12 0.613E-12   -.722E-15 0.275E+02 0.278E-16   0.209E-12 0.104E-02 0.655E-11
 
 
 POSITION                                       TOTAL-FORCE (eV/Angst)
 -----------------------------------------------------------------------------------
      1.35900      1.28223      1.33764         0.000685     -0.008656      0.001876
      6.61305      1.28223      1.46604         0.000685     -0.008656      0.001876
      1.35900      6.54309      1.33764         0.000685     -0.008656      0.001876
      6.61305      6.54309      1.46604         0.000685     -0.008656      0.001876
      3.95860      3.91266      1.39152        -0.000685     -0.008656     -0.001876
      9.21264      3.91266      1.51992        -0.000685     -0.008656     -0.001876
      3.95860      9.17353      1.39152        -0.000685     -0.008656     -0.001876
      9.21264      9.17353      1.51992        -0.000685     -0.008656     -0.001876
      1.53596      3.91455      9.13480         0.000000     -0.007460     -0.000000
      6.79000      3.91455      9.26319         0.000000     -0.007460      0.000000
      1.53596      9.17541      9.13480         0.000000     -0.007460      0.000000
      6.79000      9.17541      9.26319         0.000000     -0.007460     -0.000000
      4.16298      1.30458      9.19900         0.000000     -0.002417     -0.000000
      9.41702      1.30458      9.32739         0.000000     -0.002417     -0.000000
      4.16298      6.56544      9.19900         0.000000     -0.002417      0.000000
      9.41702      6.56544      9.32739         0.000000     -0.002417     -0.000000
      1.45869      1.28223      6.52887        -0.000685     -0.008656     -0.001876
      6.71273      1.28223      6.65726        -0.000685     -0.008656     -0.001876
      1.45869      6.54309      6.52887        -0.000685     -0.008656     -0.001876
      6.71273      6.54309      6.65726        -0.000685     -0.008656     -0.001876
      4.11314      3.91266      6.60338         0.000685     -0.008656      0.001876
      9.36718      3.91266      6.73178         0.000685     -0.008656      0.001876
      4.11314      9.17353      6.60338         0.000685     -0.008656      0.001876
      9.36718      9.17353      6.73178         0.000685     -0.008656      0.001876
      4.03587      1.28411      3.99745         0.000000     -0.007460      0.000000
      9.28991      1.28411      4.12585         0.000000     -0.007460     -0.000000
      4.03587      6.54498      3.99745         0.000000     -0.007460     -0.000000
      9.28991      6.54498      4.12585         0.000000     -0.007460     -0.000000
      1.40885      3.93501      3.93326         0.000000     -0.002417     -0.000000
      6.66289      3.93501      4.06165         0.000000     -0.002417     -0.000000
      1.40885      9.19587      3.93326         0.000000     -0.002417     -0.000000
      6.66289      9.19587      4.06165         0.000000     -0.002417      0.000000
     10.62326      0.02730      5.45810         0.003336      0.006641     -0.007442
      5.36922      0.02730      5.32970         0.003336      0.006641     -0.007442
     10.62326      5.28817      5.45810         0.003336      0.006641     -0.007442
      5.36922      5.28817      5.32970         0.003336      0.006641     -0.007442
      2.70251      0.02730      2.66521        -0.003336      0.006641      0.007442
      7.95656      0.02730      2.79361        -0.003336      0.006641      0.007442
      2.70251      5.28817      2.66521        -0.003336      0.006641      0.007442
      7.95656      5.28817      2.79361        -0.003336      0.006641      0.007442
      2.61509      2.65774      0.06396         0.003336      0.006641     -0.007442
      7.86913      2.65774      0.19236         0.003336      0.006641     -0.007442
      2.61509      7.91860      0.06396         0.003336      0.006641     -0.007442
      7.86913      7.91860      0.19236         0.003336      0.006641     -0.007442
      0.20261      2.65774      7.80255        -0.003336      0.006641      0.007442
      5.45665      2.65774      7.93095        -0.003336      0.006641      0.007442
      0.20261      7.91860      7.80255        -0.003336      0.006641      0.007442
      5.45665      7.91860      7.93095        -0.003336      0.006641      0.007442
     10.50125      0.02655      0.26051         0.004824      0.006953     -0.015326
      5.24720      0.02655      0.13212         0.004824      0.006953     -0.015326
     10.50125      5.28741      0.26051         0.004824      0.006953     -0.015326
      5.24720      5.28741      0.13212         0.004824      0.006953     -0.015326
      2.82453      0.02655      7.86279        -0.004824      0.006953      0.015326
      8.07858      0.02655      7.99119        -0.004824      0.006953      0.015326
      2.82453      5.28741      7.86279        -0.004824      0.006953      0.015326
      8.07858      5.28741      7.99119        -0.004824      0.006953      0.015326
      2.74729      2.65698      5.26946         0.004824      0.006953     -0.015326
      8.00134      2.65698      5.39786         0.004824      0.006953     -0.015326
      2.74729      7.91784      5.26946         0.004824      0.006953     -0.015326
      8.00134      7.91784      5.39786         0.004824      0.006953     -0.015326
      0.07040      2.65698      2.59705        -0.004824      0.006953      0.015326
      5.32444      2.65698      2.72545        -0.004824      0.006953      0.015326
      0.07040      7.91784      2.59705        -0.004824      0.006953      0.015326
      5.32444      7.91784      2.72545        -0.004824      0.006953      0.015326
 -----------------------------------------------------------------------------------
    total drift:                               -0.000000      0.001156      0.000009


--------------------------------------------------------------------------------------------------------



  FREE ENERGIE OF THE ION-ELECTRON SYSTEM (eV)
  ---------------------------------------------------
  free  energy   TOTEN  =      -327.86795662 eV

  energy  without entropy=     -327.86795662  energy(sigma->0) =     -327.86795662
 


--------------------------------------------------------------------------------------------------------


    POTLOK:  cpu time    0.1295: real time    0.1302


--------------------------------------------------------------------------------------------------------


 writing wavefunctions
     LOOP+:  cpu time 3605.6557: real time 3631.6790
    4ORBIT:  cpu time    0.0000: real time    0.0000
 


 total charge     
 
# of ion       s       p       d       tot
------------------------------------------
    1        1.314   2.410   0.000   3.724
    2        1.314   2.410   0.000   3.724
    3        1.314   2.410   0.000   3.724
    4        1.314   2.410   0.000   3.724
    5        1.314   2.410   0.000   3.724
    6        1.314   2.410   0.000   3.724
    7        1.314   2.410   0.000   3.724
    8        1.314   2.410   0.000   3.724
    9        1.315   2.407   0.000   3.721
   10        1.315   2.407   0.000   3.721
   11        1.315   2.407   0.000   3.721
   12        1.315   2.407   0.000   3.721
   13        1.313   2.412   0.000   3.725
   14        1.313   2.412   0.000   3.725
   15        1.313   2.412   0.000   3.725
   16        1.313   2.412   0.000   3.725
   17        1.314   2.410   0.000   3.724
   18        1.314   2.410   0.000   3.724
   19        1.314   2.410   0.000   3.724
   20        1.314   2.410   0.000   3.724
   21        1.314   2.410   0.000   3.724
   22        1.314   2.410   0.000   3.724
   23        1.314   2.410   0.000   3.724
   24        1.314   2.410   0.000   3.724
   25        1.315   2.407   0.000   3.721
   26        1.315   2.407   0.000   3.721
   27        1.315   2.407   0.000   3.721
   28        1.315   2.407   0.000   3.721
   29        1.313   2.412   0.000   3.725
   30        1.313   2.412   0.000   3.725
   31        1.313   2.412   0.000   3.725
   32        1.313   2.412   0.000   3.725
   33        0.259   6.202   8.917  15.378
   34        0.259   6.202   8.917  15.378
   35        0.259   6.202   8.917  15.378
   36        0.259   6.202   8.917  15.378
   37        0.259   6.202   8.917  15.378
   38        0.259   6.202   8.917  15.378
   39        0.259   6.202   8.917  15.378
   40        0.259   6.202   8.917  15.378
   41        0.259   6.202   8.917  15.378
   42        0.259   6.202   8.917  15.378
   43        0.259   6.202   8.917  15.378
   44        0.259   6.202   8.917  15.378
   45        0.259   6.202   8.917  15.378
   46        0.259   6.202   8.917  15.378
   47        0.259   6.202   8.917  15.378
   48        0.259   6.202   8.917  15.378
   49        0.350   6.350   5.821  12.521
   50        0.350   6.350   5.821  12.521
   51        0.350   6.350   5.821  12.521
   52        0.350   6.350   5.821  12.521
   53        0.350   6.350   5.821  12.521
   54        0.350   6.350   5.821  12.521
   55        0.350   6.350   5.821  12.521
   56        0.350   6.350   5.821  12.521
   57        0.350   6.350   5.821  12.521
   58        0.350   6.350   5.821  12.521
   59        0.350   6.350   5.821  12.521
   60        0.350   6.350   5.821  12.521
   61        0.350   6.350   5.821  12.521
   62        0.350   6.350   5.821  12.521
   63        0.350   6.350   5.821  12.521
   64        0.350   6.350   5.821  12.521
--------------------------------------------------
tot         51.788 277.947 235.800 565.535
 


 magnetization (x)
 
# of ion       s       p       d       tot
------------------------------------------
    1       -0.000  -0.012   0.000  -0.012
    2       -0.000  -0.012   0.000  -0.012
    3       -0.000  -0.012   0.000  -0.012
    4       -0.000  -0.012   0.000  -0.012
    5        0.000   0.012   0.000   0.012
    6        0.000   0.012   0.000   0.012
    7        0.000   0.012   0.000   0.012
    8        0.000   0.012   0.000   0.012
    9        0.000   0.000   0.000   0.000
   10        0.000   0.000   0.000   0.000
   11        0.000   0.000   0.000   0.000
   12        0.000   0.000   0.000   0.000
   13       -0.000   0.000   0.000   0.000
   14       -0.000   0.000   0.000   0.000
   15       -0.000   0.000   0.000   0.000
   16       -0.000   0.000   0.000   0.000
   17        0.000   0.012   0.000   0.012
   18        0.000   0.012   0.000   0.012
   19        0.000   0.012   0.000   0.012
   20        0.000   0.012   0.000   0.012
   21       -0.000  -0.012   0.000  -0.012
   22       -0.000  -0.012   0.000  -0.012
   23       -0.000  -0.012   0.000  -0.012
   24       -0.000  -0.012   0.000  -0.012
   25        0.000   0.000   0.000   0.000
   26        0.000   0.000   0.000   0.000
   27        0.000   0.000   0.000   0.000
   28        0.000   0.000   0.000   0.000
   29       -0.000   0.000   0.000  -0.000
   30       -0.000   0.000   0.000   0.000
   31       -0.000   0.000   0.000  -0.000
   32       -0.000   0.000   0.000   0.000
   33        0.000   0.001  -0.001  -0.001
   34        0.000   0.001  -0.001  -0.001
   35        0.000   0.001  -0.001  -0.001
   36        0.000   0.001  -0.001  -0.001
   37       -0.000  -0.001   0.001   0.001
   38       -0.000  -0.001   0.001   0.001
   39       -0.000  -0.001   0.001   0.001
   40       -0.000  -0.001   0.001   0.001
   41        0.000   0.001  -0.001  -0.001
   42        0.000   0.001  -0.001  -0.001
   43        0.000   0.001  -0.001  -0.001
   44        0.000   0.001  -0.001  -0.001
   45       -0.000  -0.001   0.001   0.001
   46       -0.000  -0.001   0.001   0.001
   47       -0.000  -0.001   0.001   0.001
   48       -0.000  -0.001   0.001   0.001
   49        0.020   0.054   3.669   3.743
   50        0.020   0.054   3.669   3.743
   51        0.020   0.054   3.669   3.743
   52        0.020   0.054   3.669   3.743
   53       -0.020  -0.054  -3.669  -3.743
   54       -0.020  -0.054  -3.669  -3.743
   55       -0.020  -0.054  -3.669  -3.743
   56       -0.020  -0.054  -3.669  -3.743
   57        0.020   0.054   3.669   3.743
   58        0.020   0.054   3.669   3.743
   59        0.020   0.054   3.669   3.743
   60        0.020   0.054   3.669   3.743
   61       -0.020  -0.054  -3.669  -3.743
   62       -0.020  -0.054  -3.669  -3.743
   63       -0.020  -0.054  -3.669  -3.743
   64       -0.020  -0.054  -3.669  -3.743
--------------------------------------------------
tot         -0.000   0.000  -0.000  -0.000
 
 BZINTS: Fermi energy:  4.953022;688.000000 electrons
         Band energy:***********;  BLOECHL correction:  0.000000

 total amount of memory used by VASP MPI-rank0   348353. kBytes
=======================================================================

   base      :      30000. kBytes
   nonl-proj :     216760. kBytes
   fftplans  :       4588. kBytes
   grid      :      69719. kBytes
   one-center:       1990. kBytes
   wavefun   :      25296. kBytes
 
  
  
 General timing and accounting informations for this job:
 ========================================================
  
                  Total CPU time used (sec):     3664.456
                            User time (sec):     3653.320
                          System time (sec):       11.136
                         Elapsed time (sec):     3691.746
  
                   Maximum memory used (kb):      720220.
                   Average memory used (kb):           0.
  
                          Minor page faults:       638466
                          Major page faults:         5739
                 Voluntary context switches:         7209
