 vasp.5.4.4.18Apr17-6-g9f103f2a35 (build Oct 30 2023 17:30:16) complex          
  
 executed on             LinuxIFC date 2024.06.27  09:07:34
 running on  256 total cores
 distrk:  each k-point on  256 cores,    1 groups
 distr:  one band on NCORES_PER_BAND=   1 cores,  256 groups


--------------------------------------------------------------------------------------------------------


 INCAR:
 POTCAR:    PAW_PBE S 06Sep2000                   
 POTCAR:     PAW_PBE Cu_pv 06Sep2000              
 POTCAR:     PAW_PBE Fe_pv 02Aug2007              

 ----------------------------------------------------------------------------- 
|                                                                             |
|           W    W    AA    RRRRR   N    N  II  N    N   GGGG   !!!           |
|           W    W   A  A   R    R  NN   N  II  NN   N  G    G  !!!           |
|           W    W  A    A  R    R  N N  N  II  N N  N  G       !!!           |
|           W WW W  AAAAAA  RRRRR   N  N N  II  N  N N  G  GGG   !            |
|           WW  WW  A    A  R   R   N   NN  II  N   NN  G    G                |
|           W    W  A    A  R    R  N    N  II  N    N   GGGG   !!!           |
|                                                                             |
|      For optimal performance we recommend to set                            |
|        NCORE= 4 - approx SQRT( number of cores)                             |
|      NCORE specifies how many cores store one orbital (NPAR=cpu/NCORE).     |
|      This setting can  greatly improve the performance of VASP for DFT.     |
|      The default,   NCORE=1            might be grossly inefficient         |
|      on modern multi-core architectures or massively parallel machines.     |
|      Do your own testing !!!!                                               |
|      Unfortunately you need to use the default for GW and RPA calculations. |
|      (for HF NCORE is supported but not extensively tested yet)             |
|                                                                             |
 ----------------------------------------------------------------------------- 

 POTCAR:    PAW_PBE S 06Sep2000                   
   SHA256 =  0fc7481fb0695f01bdc6462160264c5c84044ae9ec85a907d398b887a2bc3132 S/
   COPYR  = (c) Copyright 06Sep2000 Georg Kresse                                
   COPYR  = This file is part of the software VASP. Any use, copying, and all ot
   COPYR  = If you do not have a valid VASP license, you may not use, copy or di
   VRHFIN =S : s2p4                                                             
   LEXCH  = PE                                                                  
   EATOM  =   276.8230 eV,   20.3459 Ry                                         
                                                                                
   TITEL  = PAW_PBE S 06Sep2000                                                 
   LULTRA =        F    use ultrasoft PP ?                                      
   IUNSCR =        1    unscreen: 0-lin 1-nonlin 2-no                           
   RPACOR =    1.500    partial core radius                                     
   POMASS =   32.066; ZVAL   =    6.000    mass and valenz                      
   RCORE  =    1.900    outmost cutoff radius                                   
   RWIGS  =    2.200; RWIGS  =    1.164    wigner-seitz radius (au A)           
   ENMAX  =  258.689; ENMIN  =  194.016 eV                                      
   ICORE  =        2    local potential                                         
   LCOR   =        T    correct aug charges                                     
   LPAW   =        T    paw PP                                                  
   EAUG   =  335.092                                                            
   DEXC   =    0.000                                                            
   RMAX   =    1.942    core radius for proj-oper                               
   RAUG   =    1.300    factor for augmentation sphere                          
   RDEP   =    1.954    radius for radial grids                                 
   RDEPT  =    1.744    core radius for aug-charge                              
                                                                                
   Atomic configuration                                                         
    6 entries                                                                   
     n  l   j            E        occ.                                          
     1  0  0.50     -2405.8406   2.0000                                         
     2  0  0.50      -211.7007   2.0000                                         
     2  1  1.50      -156.4958   6.0000                                         
     3  0  0.50       -17.2562   2.0000                                         
     3  1  0.50        -7.0085   4.0000                                         
     3  2  1.50        -6.8029   0.0000                                         
   Description                                                                  
     l       E           TYP  RCUT    TYP  RCUT                                 
     0    -17.2561641     23  1.900                                             
     0    -15.8743224     23  1.900                                             
     1     -7.0085400     23  1.900                                             
     1     -2.7779785     23  1.900                                             
     2     -6.8029130     23  1.900                                             
  local pseudopotential read in
  partial core-charges read in
  partial kinetic energy density read in
  atomic valenz-charges read in
  non local Contribution for L=           0  read in
    real space projection operators read in
  non local Contribution for L=           0  read in
    real space projection operators read in
  non local Contribution for L=           1  read in
    real space projection operators read in
  non local Contribution for L=           1  read in
    real space projection operators read in
    PAW grid and wavefunctions read in
 
   number of l-projection  operators is LMAX  =           4
   number of lm-projection operators is LMMAX =           8
 
 POTCAR:     PAW_PBE Cu_pv 06Sep2000              
   SHA256 =  cb7b504e2ea725fe1f25c85a9ac77d4012ce94cd394135b722c4e25ec297f1cb Cu
   COPYR  = (c) Copyright 06Sep2000 Georg Kresse                                
   COPYR  = This file is part of the software VASP. Any use, copying, and all ot
   COPYR  = If you do not have a valid VASP license, you may not use, copy or di
   VRHFIN =Cu: d10 p1                                                           
   LEXCH  = PE                                                                  
   EATOM  =  4120.1201 eV,  302.8203 Ry                                         
                                                                                
   TITEL  = PAW_PBE Cu_pv 06Sep2000                                             
   LULTRA =        F    use ultrasoft PP ?                                      
   IUNSCR =        1    unscreen: 0-lin 1-nonlin 2-no                           
   RPACOR =    1.500    partial core radius                                     
   POMASS =   63.546; ZVAL   =   17.000    mass and valenz                      
   RCORE  =    2.000    outmost cutoff radius                                   
   RWIGS  =    2.000; RWIGS  =    1.058    wigner-seitz radius (au A)           
   ENMAX  =  368.648; ENMIN  =  276.486 eV                                      
   RCLOC  =    1.304    cutoff for local pot                                    
   LCOR   =        T    correct aug charges                                     
   LPAW   =        T    paw PP                                                  
   EAUG   =  758.233                                                            
   DEXC   =    0.000                                                            
   RMAX   =    2.046    core radius for proj-oper                               
   RAUG   =    1.300    factor for augmentation sphere                          
   RDEP   =    2.025    radius for radial grids                                 
   RDEPT  =    1.558    core radius for aug-charge                              
                                                                                
   Atomic configuration                                                         
    8 entries                                                                   
     n  l   j            E        occ.                                          
     1  0  0.50     -8850.2467   2.0000                                         
     2  0  0.50     -1062.3498   2.0000                                         
     2  1  1.50      -916.8226   6.0000                                         
     3  0  0.50      -114.6929   2.0000                                         
     3  1  1.50       -72.1325   6.0000                                         
     3  2  2.50        -5.0394  10.0000                                         
     4  0  0.50        -4.6097   1.0000                                         
     4  3  2.50        -1.3606   0.0000                                         
   Description                                                                  
     l       E           TYP  RCUT    TYP  RCUT                                 
     1    -72.1324777     23  1.700                                             
     1     -1.3605826     23  1.700                                             
     2     -5.0393776     23  2.000                                             
     2     -6.3999602     23  2.000                                             
     0     -4.6097062     23  1.800                                             
     0     14.1620818     23  1.800                                             
  local pseudopotential read in
  partial core-charges read in
  partial kinetic energy density read in
  atomic valenz-charges read in
  non local Contribution for L=           1  read in
    real space projection operators read in
  non local Contribution for L=           1  read in
    real space projection operators read in
  non local Contribution for L=           2  read in
    real space projection operators read in
  non local Contribution for L=           2  read in
    real space projection operators read in
  non local Contribution for L=           0  read in
    real space projection operators read in
  non local Contribution for L=           0  read in
    real space projection operators read in
    PAW grid and wavefunctions read in
 
   number of l-projection  operators is LMAX  =           6
   number of lm-projection operators is LMMAX =          18
 
 POTCAR:     PAW_PBE Fe_pv 02Aug2007              
   SHA256 =  5d22e414b1f82158bf2c7ecb8b97b28fd0923e48cadc1c3bf74d524558f5dd32 Fe
   COPYR  = (c) Copyright 02Aug2007 Georg Kresse                                
   COPYR  = This file is part of the software VASP. Any use, copying, and all ot
   COPYR  = If you do not have a valid VASP license, you may not use, copy or di
   VRHFIN =Fe:  3pd7s1                                                          
   LEXCH  = PE                                                                  
   EATOM  =  2457.4239 eV,  180.6156 Ry                                         
                                                                                
   TITEL  = PAW_PBE Fe_pv 02Aug2007                                             
   LULTRA =        F    use ultrasoft PP ?                                      
   IUNSCR =        1    unscreen: 0-lin 1-nonlin 2-no                           
   RPACOR =    1.750    partial core radius                                     
   POMASS =   55.847; ZVAL   =   14.000    mass and valenz                      
   RCORE  =    2.200    outmost cutoff radius                                   
   RWIGS  =    2.200; RWIGS  =    1.164    wigner-seitz radius (au A)           
   ENMAX  =  293.238; ENMIN  =  219.928 eV                                      
   ICORE  =        3    local potential                                         
   LCOR   =        T    correct aug charges                                     
   LPAW   =        T    paw PP                                                  
   EAUG   =  578.342                                                            
   DEXC   =    0.000                                                            
   RMAX   =    2.249    core radius for proj-oper                               
   RAUG   =    1.300    factor for augmentation sphere                          
   RDEP   =    2.296    radius for radial grids                                 
   RDEPT  =    1.766    core radius for aug-charge                              
                                                                                
   Atomic configuration                                                         
    8 entries                                                                   
     n  l   j            E        occ.                                          
     1  0  0.50     -6993.8440   2.0000                                         
     2  0  0.50      -814.6047   2.0000                                         
     2  1  1.50      -693.3689   6.0000                                         
     3  0  0.50       -89.4732   2.0000                                         
     3  1  1.50       -55.6373   6.0000                                         
     3  2  2.50        -3.8151   7.0000                                         
     4  0  0.50        -4.2551   1.0000                                         
     4  3  2.50        -1.3606   0.0000                                         
   Description                                                                  
     l       E           TYP  RCUT    TYP  RCUT                                 
     1    -55.6372668     23  2.000                                             
     1     -5.4423304     23  2.000                                             
     2     -3.8151096     23  2.200                                             
     2     -5.1756922     23  2.200                                             
     0     -4.2550951     23  2.200                                             
     0     27.2116520     23  2.200                                             
     3     -1.3605826     23  2.200                                             
  local pseudopotential read in
  partial core-charges read in
  partial kinetic energy density read in
  atomic valenz-charges read in
  non local Contribution for L=           1  read in
    real space projection operators read in
  non local Contribution for L=           1  read in
    real space projection operators read in
  non local Contribution for L=           2  read in
    real space projection operators read in
  non local Contribution for L=           2  read in
    real space projection operators read in
  non local Contribution for L=           0  read in
    real space projection operators read in
  non local Contribution for L=           0  read in
    real space projection operators read in
    PAW grid and wavefunctions read in
 
   number of l-projection  operators is LMAX  =           6
   number of lm-projection operators is LMMAX =          18
 

 ----------------------------------------------------------------------------- 
|                                                                             |
|  ADVICE TO THIS USER RUNNING 'VASP/VAMP'   (HEAR YOUR MASTER'S VOICE ...):  |
|                                                                             |
|      You have a (more or less) 'large supercell' and for larger cells       |
|      it might be more efficient to use real space projection opertators     |
|      So try LREAL= Auto  in the INCAR   file.                               |
|      Mind:          For very  accurate calculation you might also keep the  |
|      reciprocal projection scheme          (i.e. LREAL=.FALSE.)             |
|                                                                             |
 ----------------------------------------------------------------------------- 


 ----------------------------------------------------------------------------- 
|                                                                             |
|  ADVICE TO THIS USER RUNNING 'VASP/VAMP'   (HEAR YOUR MASTER'S VOICE ...):  |
|                                                                             |
|      You enforced a specific xc-type in the INCAR file,                     |
|      a different type was found on the POTCAR file                          |
|          I HOPE YOU KNOW, WHAT YOU ARE  DOING                               |
|                                                                             |
 ----------------------------------------------------------------------------- 

  PAW_PBE S 06Sep2000                   :
 energy of atom  1       EATOM= -276.8230
 kinetic energy error for atom=    0.0007 (will be added to EATOM!!)
   PAW_PBE Cu_pv 06Sep2000              :
 energy of atom  2       EATOM=-4120.1201
 kinetic energy error for atom=    0.0094 (will be added to EATOM!!)
   PAW_PBE Fe_pv 02Aug2007              :
 energy of atom  3       EATOM=-2457.4239
 kinetic energy error for atom=    0.0025 (will be added to EATOM!!)
 
 
 POSCAR: generated by phonopy                    
  positions in direct lattice
  velocities in cartesian coordinates
 exchange correlation table for  LEXCH =       14
   RHO(1)=    0.500       N(1)  =     2000
   RHO(2)=  100.500       N(2)  =     4000
 


--------------------------------------------------------------------------------------------------------


 ion  position               nearest neighbor table
   1  0.126  0.117  0.126-  41 2.25  61 2.26  37 2.28  49 2.30
   2  0.626  0.117  0.126-  42 2.25  62 2.26  38 2.28  50 2.30
   3  0.126  0.617  0.126-  43 2.25  63 2.26  39 2.28  51 2.30
   4  0.626  0.617  0.126-  44 2.25  64 2.26  40 2.28  52 2.30
   5  0.374  0.367  0.124-  39 2.25  52 2.26  41 2.28  62 2.30
   6  0.874  0.367  0.124-  40 2.25  51 2.26  42 2.28  61 2.30
   7  0.374  0.867  0.124-  37 2.25  50 2.26  43 2.28  64 2.30
   8  0.874  0.867  0.124-  38 2.25  49 2.26  44 2.28  63 2.30
   9  0.125  0.369  0.875-  51 2.27  55 2.27  41 2.27  45 2.27
  10  0.625  0.369  0.875-  52 2.27  56 2.27  42 2.27  46 2.27
  11  0.125  0.869  0.875-  49 2.27  53 2.27  43 2.27  47 2.27
  12  0.625  0.869  0.875-  50 2.27  54 2.27  44 2.27  48 2.27
  13  0.375  0.121  0.875-  41 2.26  46 2.26  50 2.30  53 2.30
  14  0.875  0.121  0.875-  45 2.26  42 2.26  49 2.30  54 2.30
  15  0.375  0.621  0.875-  43 2.26  48 2.26  52 2.30  55 2.30
  16  0.875  0.621  0.875-  47 2.26  44 2.26  51 2.30  56 2.30
  17  0.124  0.117  0.624-  45 2.25  57 2.26  33 2.28  53 2.30
  18  0.624  0.117  0.624-  46 2.25  58 2.26  34 2.28  54 2.30
  19  0.124  0.617  0.624-  47 2.25  59 2.26  35 2.28  55 2.30
  20  0.624  0.617  0.624-  48 2.25  60 2.26  36 2.28  56 2.30
  21  0.376  0.367  0.626-  36 2.25  55 2.26  46 2.28  57 2.30
  22  0.876  0.367  0.626-  35 2.25  56 2.26  45 2.28  58 2.30
  23  0.376  0.867  0.626-  34 2.25  53 2.26  48 2.28  59 2.30
  24  0.876  0.867  0.626-  33 2.25  54 2.26  47 2.28  60 2.30
  25  0.375  0.119  0.375-  57 2.27  62 2.27  34 2.27  37 2.27
  26  0.875  0.119  0.375-  58 2.27  61 2.27  33 2.27  38 2.27
  27  0.375  0.619  0.375-  59 2.27  64 2.27  36 2.27  39 2.27
  28  0.875  0.619  0.375-  60 2.27  63 2.27  35 2.27  40 2.27
  29  0.125  0.371  0.375-  39 2.26  35 2.26  57 2.30  61 2.30
  30  0.625  0.371  0.375-  36 2.26  40 2.26  58 2.30  62 2.30
  31  0.125  0.871  0.375-  37 2.26  33 2.26  59 2.30  63 2.30
  32  0.625  0.871  0.375-  34 2.26  38 2.26  60 2.30  64 2.30
  33  0.997  0.006  0.500-  24 2.25  31 2.26  26 2.27  17 2.28
  34  0.497  0.006  0.500-  23 2.25  32 2.26  25 2.27  18 2.28
  35  0.997  0.506  0.500-  22 2.25  29 2.26  28 2.27  19 2.28
  36  0.497  0.506  0.500-  21 2.25  30 2.26  27 2.27  20 2.28
  37  0.253  0.006  0.250-   7 2.25  31 2.26  25 2.27   1 2.28
  38  0.753  0.006  0.250-   8 2.25  32 2.26  26 2.27   2 2.28
  39  0.253  0.506  0.250-   5 2.25  29 2.26  27 2.27   3 2.28
  40  0.753  0.506  0.250-   6 2.25  30 2.26  28 2.27   4 2.28
  41  0.247  0.256  0.000-   1 2.25  13 2.26   9 2.27   5 2.28
  42  0.747  0.256  0.000-   2 2.25  14 2.26  10 2.27   6 2.28
  43  0.247  0.756  0.000-   3 2.25  15 2.26  11 2.27   7 2.28
  44  0.747  0.756  0.000-   4 2.25  16 2.26  12 2.27   8 2.28
  45  0.003  0.256  0.750-  17 2.25  14 2.26   9 2.27  22 2.28
  46  0.503  0.256  0.750-  18 2.25  13 2.26  10 2.27  21 2.28
  47  0.003  0.756  0.750-  19 2.25  16 2.26  11 2.27  24 2.28
  48  0.503  0.756  0.750-  20 2.25  15 2.26  12 2.27  23 2.28
  49  0.998  0.006  0.001-   8 2.26  11 2.27  14 2.30   1 2.30
  50  0.498  0.006  0.001-   7 2.26  12 2.27  13 2.30   2 2.30
  51  0.998  0.506  0.001-   6 2.26   9 2.27  16 2.30   3 2.30
  52  0.498  0.506  0.001-   5 2.26  10 2.27  15 2.30   4 2.30
  53  0.252  0.006  0.749-  23 2.26  11 2.27  13 2.30  17 2.30
  54  0.752  0.006  0.749-  24 2.26  12 2.27  14 2.30  18 2.30
  55  0.252  0.506  0.749-  21 2.26   9 2.27  15 2.30  19 2.30
  56  0.752  0.506  0.749-  22 2.26  10 2.27  16 2.30  20 2.30
  57  0.248  0.256  0.501-  17 2.26  25 2.27  29 2.30  21 2.30
  58  0.748  0.256  0.501-  18 2.26  26 2.27  30 2.30  22 2.30
  59  0.248  0.756  0.501-  19 2.26  27 2.27  31 2.30  23 2.30
  60  0.748  0.756  0.501-  20 2.26  28 2.27  32 2.30  24 2.30
  61  0.002  0.256  0.249-   1 2.26  26 2.27  29 2.30   6 2.30
  62  0.502  0.256  0.249-   2 2.26  25 2.27  30 2.30   5 2.30
  63  0.002  0.756  0.249-   3 2.26  28 2.27  31 2.30   8 2.30
  64  0.502  0.756  0.249-   4 2.26  27 2.27  32 2.30   7 2.30
 
  LATTYP: Found a simple monoclinic cell.
 ALAT       =    15.6733860712
 B/A-ratio  =     0.6718659171
 C/A-ratio  =     1.5595703838
 COS(beta)  =    -0.9589334535
  
  Lattice vectors:
  
 A1 = ( -11.7846935773,   0.0000000000, -10.3332486772)
 A2 = (   0.0000000000, -10.5304139072,   0.0000000000)
 A3 = (  13.0534569788,   0.0000000000,  20.6664973544)


Analysis of symmetry for initial positions (statically):
=====================================================================
 Subroutine PRICEL returns following result:
 
  LATTYP: Found a base centered monoclinic cell.
 ALAT       =    11.0765409005
 B/A-ratio  =     0.4753475838
 C/A-ratio  =     0.9399007926
 COS(beta)  =    -0.7966287342
  
  Lattice vectors:
  
 A1 = (  -1.9946008432,  -2.6326034768,   5.1666243386)
 A2 = (  -1.9946008432,   2.6326034768,   5.1666243386)
 A3 = (  -1.2687634015,   0.0000000000, -10.3332486772)
 
   8 primitive cells build up your supercell.
 

 Routine SETGRP: Setting up the symmetry group for a 
 simple monoclinic supercell.


 Subroutine GETGRP returns: Found  2 space group operations
 (whereof  1 operations were pure point group operations)
 out of a pool of  4 trial point group operations.


The static configuration has the point symmetry C_1 .
 The point group associated with its full space group is C_2 .


Analysis of symmetry for dynamics (positions and initial velocities):
=====================================================================
 Subroutine PRICEL returns following result:
 
  LATTYP: Found a base centered monoclinic cell.
 ALAT       =    11.0765409005
 B/A-ratio  =     0.4753475838
 C/A-ratio  =     0.9399007926
 COS(beta)  =    -0.7966287342
  
  Lattice vectors:
  
 A1 = (  -1.9946008432,  -2.6326034768,   5.1666243386)
 A2 = (  -1.9946008432,   2.6326034768,   5.1666243386)
 A3 = (  -1.2687634015,   0.0000000000, -10.3332486772)
 
   8 primitive cells build up your supercell.
 

 Routine SETGRP: Setting up the symmetry group for a 
 simple monoclinic supercell.


 Subroutine GETGRP returns: Found  2 space group operations
 (whereof  1 operations were pure point group operations)
 out of a pool of  4 trial point group operations.


The dynamic configuration has the point symmetry C_1 .
 The point group associated with its full space group is C_2 .


Analysis of structural, dynamic, and magnetic symmetry:
=====================================================================
 Subroutine PRICEL returns following result:
 
  LATTYP: Found a base centered monoclinic cell.
 ALAT       =    11.0765409005
 B/A-ratio  =     0.4753475838
 C/A-ratio  =     0.9399007926
 COS(beta)  =    -0.7966287342
  
  Lattice vectors:
  
 A1 = (  -1.9946008432,  -2.6326034768,   5.1666243386)
 A2 = (  -1.9946008432,   2.6326034768,   5.1666243386)
 A3 = (  -1.2687634015,   0.0000000000, -10.3332486772)
 
   8 primitive cells build up your supercell.
 

 Routine SETGRP: Setting up the symmetry group for a 
 simple monoclinic supercell.


 Subroutine GETGRP returns: Found  2 space group operations
 (whereof  1 operations were pure point group operations)
 out of a pool of  4 trial point group operations.


The magnetic configuration has the point symmetry C_1 .
 The point group associated with its full space group is C_2 .


 Subroutine INISYM returns: Found  2 space group operations
 (whereof  1 operations are pure point group operations),
 and found     8 'primitive' translations

 
 
 KPOINTS: Automatic mesh                          

Automatic generation of k-mesh.
Space group operators:
 irot       det(A)        alpha          n_x          n_y          n_z        tau_x        tau_y        tau_z
    1     1.000000     0.000000     1.000000     0.000000     0.000000     0.000000     0.000000     0.000000
    2     1.000000   179.999999     0.000000     1.000000     0.000000    -0.250000     0.000000    -0.250000
 
 Subroutine IBZKPT returns following result:
 ===========================================
 
 Found     30 irreducible k-points:
 
 Following reciprocal coordinates:
            Coordinates               Weight
  0.000000  0.000000  0.000000      1.000000
  0.250000  0.000000  0.000000      2.000000
  0.500000  0.000000  0.000000      1.000000
  0.000000  0.250000  0.000000      2.000000
  0.250000  0.250000  0.000000      4.000000
  0.500000  0.250000  0.000000      2.000000
  0.000000  0.500000  0.000000      1.000000
  0.250000  0.500000  0.000000      2.000000
  0.500000  0.500000  0.000000      1.000000
  0.000000  0.000000  0.250000      2.000000
  0.250000  0.000000  0.250000      2.000000
  0.500000  0.000000  0.250000      2.000000
 -0.250000  0.000000  0.250000      2.000000
  0.000000  0.250000  0.250000      4.000000
  0.250000  0.250000  0.250000      4.000000
  0.500000  0.250000  0.250000      4.000000
 -0.250000  0.250000  0.250000      4.000000
  0.000000  0.500000  0.250000      2.000000
  0.250000  0.500000  0.250000      2.000000
  0.500000  0.500000  0.250000      2.000000
 -0.250000  0.500000  0.250000      2.000000
  0.000000  0.000000  0.500000      1.000000
  0.250000  0.000000  0.500000      2.000000
  0.500000  0.000000  0.500000      1.000000
  0.000000  0.250000  0.500000      2.000000
  0.250000  0.250000  0.500000      4.000000
  0.500000  0.250000  0.500000      2.000000
  0.000000  0.500000  0.500000      1.000000
  0.250000  0.500000  0.500000      2.000000
  0.500000  0.500000  0.500000      1.000000
 
 Following cartesian coordinates:
            Coordinates               Weight
  0.000000  0.000000  0.000000      1.000000
  0.023773  0.000000 -0.002919      2.000000
  0.047547  0.000000 -0.005838      1.000000
  0.000000  0.023741  0.000000      2.000000
  0.023773  0.023741 -0.002919      4.000000
  0.047547  0.023741 -0.005838      2.000000
  0.000000  0.047482  0.000000      1.000000
  0.023773  0.047482 -0.002919      2.000000
  0.047547  0.047482 -0.005838      1.000000
  0.000000  0.000000  0.024194      2.000000
  0.023773  0.000000  0.021275      2.000000
  0.047547  0.000000  0.018356      2.000000
 -0.023773  0.000000  0.027113      2.000000
  0.000000  0.023741  0.024194      4.000000
  0.023773  0.023741  0.021275      4.000000
  0.047547  0.023741  0.018356      4.000000
 -0.023773  0.023741  0.027113      4.000000
  0.000000  0.047482  0.024194      2.000000
  0.023773  0.047482  0.021275      2.000000
  0.047547  0.047482  0.018356      2.000000
 -0.023773  0.047482  0.027113      2.000000
  0.000000  0.000000  0.048387      1.000000
  0.023773  0.000000  0.045468      2.000000
  0.047547  0.000000  0.042549      1.000000
  0.000000  0.023741  0.048387      2.000000
  0.023773  0.023741  0.045468      4.000000
  0.047547  0.023741  0.042549      2.000000
  0.000000  0.047482  0.048387      1.000000
  0.023773  0.047482  0.045468      2.000000
  0.047547  0.047482  0.042549      1.000000
 
 TETIRR: Found    192 inequivalent tetrahedra from      384
 
 Subroutine IBZKPT_HF returns following result:
 ==============================================
 
 Found     64 k-points in 1st BZ
 the following     64 k-points will be used (e.g. in the exchange kernel)
 Following reciprocal coordinates:   # in IRBZ
  0.000000  0.000000  0.000000    0.01562500   1 t-inv F
  0.250000  0.000000  0.000000    0.01562500   2 t-inv F
  0.500000  0.000000  0.000000    0.01562500   3 t-inv F
  0.000000  0.250000  0.000000    0.01562500   4 t-inv F
  0.250000  0.250000  0.000000    0.01562500   5 t-inv F
  0.500000  0.250000  0.000000    0.01562500   6 t-inv F
  0.000000  0.500000  0.000000    0.01562500   7 t-inv F
  0.250000  0.500000  0.000000    0.01562500   8 t-inv F
  0.500000  0.500000  0.000000    0.01562500   9 t-inv F
  0.000000  0.000000  0.250000    0.01562500  10 t-inv F
  0.250000  0.000000  0.250000    0.01562500  11 t-inv F
  0.500000  0.000000  0.250000    0.01562500  12 t-inv F
 -0.250000  0.000000  0.250000    0.01562500  13 t-inv F
  0.000000  0.250000  0.250000    0.01562500  14 t-inv F
  0.250000  0.250000  0.250000    0.01562500  15 t-inv F
  0.500000  0.250000  0.250000    0.01562500  16 t-inv F
 -0.250000  0.250000  0.250000    0.01562500  17 t-inv F
  0.000000  0.500000  0.250000    0.01562500  18 t-inv F
  0.250000  0.500000  0.250000    0.01562500  19 t-inv F
  0.500000  0.500000  0.250000    0.01562500  20 t-inv F
 -0.250000  0.500000  0.250000    0.01562500  21 t-inv F
  0.000000  0.000000  0.500000    0.01562500  22 t-inv F
  0.250000  0.000000  0.500000    0.01562500  23 t-inv F
  0.500000  0.000000  0.500000    0.01562500  24 t-inv F
  0.000000  0.250000  0.500000    0.01562500  25 t-inv F
  0.250000  0.250000  0.500000    0.01562500  26 t-inv F
  0.500000  0.250000  0.500000    0.01562500  27 t-inv F
  0.000000  0.500000  0.500000    0.01562500  28 t-inv F
  0.250000  0.500000  0.500000    0.01562500  29 t-inv F
  0.500000  0.500000  0.500000    0.01562500  30 t-inv F
 -0.250000  0.000000 -0.000000    0.01562500   2 t-inv F spinflp
 -0.250000  0.250000 -0.000000    0.01562500   5 t-inv F spinflp
 -0.250000  0.500000 -0.000000    0.01562500   8 t-inv F spinflp
  0.000000  0.000000 -0.250000    0.01562500  10 t-inv F spinflp
 -0.250000  0.000000 -0.250000    0.01562500  11 t-inv F spinflp
 -0.500000  0.000000 -0.250000    0.01562500  12 t-inv F spinflp
  0.250000  0.000000 -0.250000    0.01562500  13 t-inv F spinflp
  0.000000  0.250000 -0.250000    0.01562500  14 t-inv F spinflp
 -0.250000  0.250000 -0.250000    0.01562500  15 t-inv F spinflp
 -0.500000  0.250000 -0.250000    0.01562500  16 t-inv F spinflp
  0.250000  0.250000 -0.250000    0.01562500  17 t-inv F spinflp
  0.000000  0.500000 -0.250000    0.01562500  18 t-inv F spinflp
 -0.250000  0.500000 -0.250000    0.01562500  19 t-inv F spinflp
 -0.500000  0.500000 -0.250000    0.01562500  20 t-inv F spinflp
  0.250000  0.500000 -0.250000    0.01562500  21 t-inv F spinflp
 -0.250000  0.000000 -0.500000    0.01562500  23 t-inv F spinflp
 -0.250000  0.250000 -0.500000    0.01562500  26 t-inv F spinflp
 -0.250000  0.500000 -0.500000    0.01562500  29 t-inv F spinflp
  0.000000 -0.250000  0.000000    0.01562500   4 t-inv T
 -0.250000 -0.250000 -0.000000    0.01562500   5 t-inv T
  0.250000 -0.250000  0.000000    0.01562500   5 t-inv T spinflp
 -0.500000 -0.250000 -0.000000    0.01562500   6 t-inv T
  0.000000 -0.250000 -0.250000    0.01562500  14 t-inv T
  0.000000 -0.250000  0.250000    0.01562500  14 t-inv T spinflp
 -0.250000 -0.250000 -0.250000    0.01562500  15 t-inv T
  0.250000 -0.250000  0.250000    0.01562500  15 t-inv T spinflp
 -0.500000 -0.250000 -0.250000    0.01562500  16 t-inv T
  0.500000 -0.250000  0.250000    0.01562500  16 t-inv T spinflp
  0.250000 -0.250000 -0.250000    0.01562500  17 t-inv T
 -0.250000 -0.250000  0.250000    0.01562500  17 t-inv T spinflp
  0.000000 -0.250000 -0.500000    0.01562500  25 t-inv T
 -0.250000 -0.250000 -0.500000    0.01562500  26 t-inv T
  0.250000 -0.250000  0.500000    0.01562500  26 t-inv T spinflp
 -0.500000 -0.250000 -0.500000    0.01562500  27 t-inv T


--------------------------------------------------------------------------------------------------------




 Dimension of arrays:
   k-points           NKPTS =     30   k-points in BZ     NKDIM =     30   number of bands    NBANDS=    512
   number of dos      NEDOS =    301   number of ions     NIONS =     64
   non local maximal  LDIM  =      6   non local SUM 2l+1 LMDIM =     18
   total plane-waves  NPLWV = 829440
   max r-space proj   IRMAX =      1   max aug-charges    IRDMAX=  23034
   dimension x,y,z NGX =    96 NGY =   96 NGZ =   90
   dimension x,y,z NGXF=   192 NGYF=  192 NGZF=  180
   support grid    NGXF=   192 NGYF=  192 NGZF=  180
   ions per type =              32  16  16
   NGX,Y,Z   is equivalent  to a cutoff of  15.18, 15.16, 14.37 a.u.
   NGXF,Y,Z  is equivalent  to a cutoff of  30.35, 30.31, 28.74 a.u.

 SYSTEM =  CuFeS2                                  
 POSCAR =  generated by phonopy                    

 Startparameter for this run:
   NWRITE =      2    write-flag & timer
   PREC   = accura    normal or accurate (medium, high low for compatibility)
   ISTART =      1    job   : 0-new  1-cont  2-samecut
   ICHARG =      1    charge: 1-file 2-atom 10-const
   ISPIN  =      2    spin polarized calculation?
   LNONCOLLINEAR =      F non collinear calculations
   LSORBIT =      F    spin-orbit coupling
   INIWAV =      1    electr: 0-lowe 1-rand  2-diag
   LASPH  =      F    aspherical Exc in radial PAW
   METAGGA=      F    non-selfconsistent MetaGGA calc.

 Electronic Relaxation 1
   ENCUT  =  700.0 eV  51.45 Ry    7.17 a.u.  22.69 22.72 22.46*2*pi/ulx,y,z
   ENINI  =  700.0     initial cutoff
   ENAUG  =  758.2 eV  augmentation charge cutoff
   NELM   =    500;   NELMIN=  2; NELMDL=  0     # of ELM steps 
   EDIFF  = 0.1E-07   stopping-criterion for ELM
   LREAL  =      F    real-space projection
   NLSPLINE    = F    spline interpolate recip. space projectors
   LCOMPAT=      F    compatible to vasp.4.4
   GGA_COMPAT  = T    GGA compatible to vasp.4.4-vasp.4.6
   LMAXPAW     = -100 max onsite density
   LMAXMIX     =    4 max onsite mixed and CHGCAR
   VOSKOWN=      0    Vosko Wilk Nusair interpolation
   ROPT   =    0.00000   0.00000   0.00000
 Ionic relaxation
   EDIFFG = -.1E-04   stopping-criterion for IOM
   NSW    =      0    number of steps for IOM
   NBLOCK =      1;   KBLOCK =      1    inner block; outer block 
   IBRION =     -1    ionic relax: 0-MD 1-quasi-New 2-CG
   NFREE  =      0    steps in history (QN), initial steepest desc. (CG)
   ISIF   =      2    stress and relaxation
   IWAVPR =     10    prediction:  0-non 1-charg 2-wave 3-comb
   ISYM   =      2    0-nonsym 1-usesym 2-fastsym
   LCORR  =      T    Harris-Foulkes like correction to forces

   POTIM  = 0.5000    time-step for ionic-motion
   TEIN   =    0.0    initial temperature
   TEBEG  =    0.0;   TEEND  =   0.0 temperature during run
   SMASS  =  -3.00    Nose mass-parameter (am)
   estimated Nose-frequenzy (Omega)   =  0.10E-29 period in steps =****** mass=  -0.253E-26a.u.
   SCALEE = 1.0000    scale energy and forces
   NPACO  =    256;   APACO  = 16.0  distance and # of slots for P.C.
   PSTRESS=    0.0 pullay stress

  Mass of Ions in am
   POMASS =  32.07 63.55 55.85
  Ionic Valenz
   ZVAL   =   6.00 17.00 14.00
  Atomic Wigner-Seitz radii
   RWIGS  =  -1.00 -1.00 -1.00
  virtual crystal weights 
   VCA    =   1.00  1.00  1.00
   NELECT =     688.0000    total number of electrons
   NUPDOWN=      -1.0000    fix difference up-down

 DOS related values:
   EMIN   =  10.00;   EMAX   =-10.00  energy-range for DOS
   EFERMI =   0.00
   ISMEAR =    -5;   SIGMA  =   0.03  broadening in eV -4-tet -1-fermi 0-gaus

 Electronic relaxation 2 (details)
   IALGO  =     38    algorithm
   LDIAG  =      T    sub-space diagonalisation (order eigenvalues)
   LSUBROT=      F    optimize rotation matrix (better conditioning)
   TURBO    =      0    0=normal 1=particle mesh
   IRESTART =      0    0=no restart 2=restart with 2 vectors
   NREBOOT  =      0    no. of reboots
   NMIN     =      0    reboot dimension
   EREF     =   0.00    reference energy to select bands
   IMIX   =      4    mixing-type and parameters
     AMIX     =   0.40;   BMIX     =  1.00
     AMIX_MAG =   1.60;   BMIX_MAG =  1.00
     AMIN     =   0.10
     WC   =   100.;   INIMIX=   1;  MIXPRE=   1;  MAXMIX= -45

 Intra band minimization:
   WEIMIN = 0.0000     energy-eigenvalue tresh-hold
   EBREAK =  0.49E-11  absolut break condition
   DEPER  =   0.30     relativ break condition  

   TIME   =   0.40     timestep for ELM

  volume/ion in A,a.u.               =      17.88       120.66
  Fermi-wavevector in a.u.,A,eV,Ry     =   1.381744  2.611118 25.976473  1.909217
  Thomas-Fermi vector in A             =   2.506500
 
 Write flags
   LWAVE        =      T    write WAVECAR
   LDOWNSAMPLE  =      F    k-point downsampling of WAVECAR
   LCHARG       =      T    write CHGCAR
   LVTOT        =      F    write LOCPOT, total local potential
   LVHAR        =      F    write LOCPOT, Hartree potential only
   LELF         =      F    write electronic localiz. function (ELF)
   LORBIT       =     11    0 simple, 1 ext, 2 COOP (PROOUT), +10 PAW based schemes


 Dipole corrections
   LMONO  =      F    monopole corrections only (constant potential shift)
   LDIPOL =      F    correct potential (dipole corrections)
   IDIPOL =      0    1-x, 2-y, 3-z, 4-all directions 
   EPSILON=  1.0000000 bulk dielectric constant

 LDA+U is selected, type is set to LDAUTYPE =  2
   angular momentum for each species LDAUL =     2    2    2
   U (eV)           for each species LDAUU =   0.0  0.1  4.7
   J (eV)           for each species LDAUJ =   0.0  0.0  0.0
 Exchange correlation treatment:
   GGA     =    PS    GGA type
   LEXCH   =    14    internal setting for exchange type
   VOSKOWN=      0    Vosko Wilk Nusair interpolation
   LHFCALC =     F    Hartree Fock is set to
   LHFONE  =     F    Hartree Fock one center treatment
   AEXX    =    0.0000 exact exchange contribution

 Linear response parameters
   LEPSILON=     T    determine dielectric tensor
   LRPA    =     F    only Hartree local field effects (RPA)
   LNABLA  =     F    use nabla operator in PAW spheres
   LVEL    =     F    velocity operator in full k-point grid
   LINTERFAST=   F  fast interpolation
   KINTER  =     0    interpolate to denser k-point grid
   CSHIFT  =0.1000    complex shift for real part using Kramers Kronig
   OMEGAMAX=  -1.0    maximum frequency
   DEG_THRESHOLD= 0.2000000E-02 threshold for treating states as degnerate
   RTIME   =   -0.100 relaxation time in fs
  (WPLASMAI=    0.000 imaginary part of plasma frequency in eV, 0.658/RTIME)
   DFIELD  = 0.0000000 0.0000000 0.0000000 field for delta impulse in time
 
 Orbital magnetization related:
   ORBITALMAG=     F  switch on orbital magnetization
   LCHIMAG   =     F  perturbation theory with respect to B field
   DQ        =  0.001000  dq finite difference perturbation B field
   LLRAUG    =     F  two centre corrections for induced B field

 PEAD related settings:
   LPEAD      =     T    switch on PEAD
   IPEAD      =     4    finite difference order for dpsi/dk
   LCALCPOL   =     T    calculate macroscopic polarization
   LCALCEPS   =     F    calculate dielectric tensor
   EFIELD_PEAD=    0.0000    0.0000    0.0000
   SKIP_EDOTP =     F
   LRPA       =     F
   SKIP_SCF   =     F


--------------------------------------------------------------------------------------------------------


 Static calculation
 charge density and potential will be updated during run
 spin polarized calculation
 Variant of blocked Davidson
 Davidson routine will perform the subspace rotation
 perform sub-space diagonalisation
    after iterative eigenvector-optimisation
 modified Broyden-mixing scheme, WC =      100.0
 initial mixing is a Kerker type mixing with AMIX =  0.4000 and BMIX =      1.0000
 Hartree-type preconditioning will be used
 using additional bands          168
 reciprocal scheme for non local part
 use partial core corrections
 calculate Harris-corrections to forces 
   (improved forces if not selfconsistent)
 use gradient corrections 
 use of overlap-Matrix (Vanderbilt PP)
 Fermi weights with tetrahedron method with Bloechl corrections


--------------------------------------------------------------------------------------------------------


  energy-cutoff  :      700.00
  volume of cell :     1144.27
      direct lattice vectors                 reciprocal lattice vectors
    10.515930176  0.000000000  0.000000000     0.095093823  0.000000000 -0.011676053
     0.000000000 10.530413907  0.000000000     0.000000000  0.094963029  0.000000000
     1.268763401  0.000000000 10.333248677     0.000000000  0.000000000  0.096774986

  length of vectors
    10.515930176 10.530413907 10.410849571     0.095807961  0.094963029  0.096774986


 
 old parameters found on file WAVECAR:
  energy-cutoff  :      700.00
  volume of cell :     1144.21
      direct lattice vectors                 reciprocal lattice vectors
    10.515930176  0.000000000  0.000000000     0.095093823  0.000000000 -0.011676053
     0.000000000 10.529832148  0.000000000     0.000000000  0.094968275  0.000000000
     1.268763401  0.000000000 10.333248677     0.000000000  0.000000000  0.096774986

  length of vectors

 
 k-points in units of 2pi/SCALE and weight: Automatic mesh                          
   0.00000000  0.00000000  0.00000000       0.016
   0.02377346  0.00000000 -0.00291901       0.031
   0.04754691  0.00000000 -0.00583803       0.016
   0.00000000  0.02374076  0.00000000       0.031
   0.02377346  0.02374076 -0.00291901       0.062
   0.04754691  0.02374076 -0.00583803       0.031
   0.00000000  0.04748151  0.00000000       0.016
   0.02377346  0.04748151 -0.00291901       0.031
   0.04754691  0.04748151 -0.00583803       0.016
   0.00000000  0.00000000  0.02419375       0.031
   0.02377346  0.00000000  0.02127473       0.031
   0.04754691  0.00000000  0.01835572       0.031
  -0.02377346  0.00000000  0.02711276       0.031
   0.00000000  0.02374076  0.02419375       0.062
   0.02377346  0.02374076  0.02127473       0.062
   0.04754691  0.02374076  0.01835572       0.062
  -0.02377346  0.02374076  0.02711276       0.062
   0.00000000  0.04748151  0.02419375       0.031
   0.02377346  0.04748151  0.02127473       0.031
   0.04754691  0.04748151  0.01835572       0.031
  -0.02377346  0.04748151  0.02711276       0.031
   0.00000000  0.00000000  0.04838749       0.016
   0.02377346  0.00000000  0.04546848       0.031
   0.04754691  0.00000000  0.04254947       0.016
   0.00000000  0.02374076  0.04838749       0.031
   0.02377346  0.02374076  0.04546848       0.062
   0.04754691  0.02374076  0.04254947       0.031
   0.00000000  0.04748151  0.04838749       0.016
   0.02377346  0.04748151  0.04546848       0.031
   0.04754691  0.04748151  0.04254947       0.016
 
 k-points in reciprocal lattice and weights: Automatic mesh                          
   0.00000000  0.00000000  0.00000000       0.016
   0.25000000  0.00000000  0.00000000       0.031
   0.50000000  0.00000000  0.00000000       0.016
   0.00000000  0.25000000  0.00000000       0.031
   0.25000000  0.25000000  0.00000000       0.062
   0.50000000  0.25000000  0.00000000       0.031
   0.00000000  0.50000000  0.00000000       0.016
   0.25000000  0.50000000  0.00000000       0.031
   0.50000000  0.50000000  0.00000000       0.016
   0.00000000  0.00000000  0.25000000       0.031
   0.25000000  0.00000000  0.25000000       0.031
   0.50000000  0.00000000  0.25000000       0.031
  -0.25000000  0.00000000  0.25000000       0.031
   0.00000000  0.25000000  0.25000000       0.062
   0.25000000  0.25000000  0.25000000       0.062
   0.50000000  0.25000000  0.25000000       0.062
  -0.25000000  0.25000000  0.25000000       0.062
   0.00000000  0.50000000  0.25000000       0.031
   0.25000000  0.50000000  0.25000000       0.031
   0.50000000  0.50000000  0.25000000       0.031
  -0.25000000  0.50000000  0.25000000       0.031
   0.00000000  0.00000000  0.50000000       0.016
   0.25000000  0.00000000  0.50000000       0.031
   0.50000000  0.00000000  0.50000000       0.016
   0.00000000  0.25000000  0.50000000       0.031
   0.25000000  0.25000000  0.50000000       0.062
   0.50000000  0.25000000  0.50000000       0.031
   0.00000000  0.50000000  0.50000000       0.016
   0.25000000  0.50000000  0.50000000       0.031
   0.50000000  0.50000000  0.50000000       0.016
 
 position of ions in fractional coordinates (direct lattice) 
   0.12649917  0.11716229  0.12616059
   0.62649916  0.11716229  0.12616059
   0.12649917  0.61716229  0.12616059
   0.62649916  0.61716229  0.12616059
   0.37350084  0.36716229  0.12383941
   0.87350084  0.36716229  0.12383941
   0.37350084  0.86716229  0.12383941
   0.87350084  0.86716229  0.12383941
   0.12500000  0.36934663  0.87500000
   0.62500000  0.36934663  0.87500000
   0.12500000  0.86934663  0.87500000
   0.62500000  0.86934663  0.87500000
   0.37500000  0.12073554  0.87500000
   0.87500000  0.12073554  0.87500000
   0.37500000  0.62073553  0.87500000
   0.87500000  0.62073553  0.87500000
   0.12350083  0.11716229  0.62383941
   0.62350084  0.11716229  0.62383941
   0.12350083  0.61716229  0.62383941
   0.62350084  0.61716229  0.62383941
   0.37649916  0.36716229  0.62616059
   0.87649916  0.36716229  0.62616059
   0.37649916  0.86716229  0.62616059
   0.87649916  0.86716229  0.62616059
   0.37500000  0.11934662  0.37500000
   0.87500000  0.11934662  0.37500000
   0.37500000  0.61934663  0.37500000
   0.87500000  0.61934663  0.37500000
   0.12500000  0.37073553  0.37500000
   0.62500000  0.37073553  0.37500000
   0.12500000  0.87073553  0.37500000
   0.62500000  0.87073553  0.37500000
   0.99715998  0.00648806  0.50001242
   0.49715998  0.00648806  0.50001242
   0.99715998  0.50648806  0.50001242
   0.49715998  0.50648806  0.50001242
   0.25284002  0.00648806  0.24998758
   0.75284002  0.00648806  0.24998758
   0.25284002  0.50648806  0.24998758
   0.75284002  0.50648806  0.24998758
   0.24715998  0.25648806  0.00001242
   0.74715998  0.25648806  0.00001242
   0.24715998  0.75648806  0.00001242
   0.74715998  0.75648806  0.00001242
   0.00284002  0.25648806  0.74998758
   0.50284002  0.25648806  0.74998758
   0.00284002  0.75648806  0.74998758
   0.50284002  0.75648806  0.74998758
   0.99834964  0.00630856  0.00093532
   0.49834964  0.00630856  0.00093532
   0.99834964  0.50630856  0.00093532
   0.49834964  0.50630856  0.00093532
   0.25165036  0.00630856  0.74906468
   0.75165036  0.00630856  0.74906468
   0.25165036  0.50630856  0.74906468
   0.75165036  0.50630856  0.74906468
   0.24834964  0.25630856  0.50093532
   0.74834964  0.25630856  0.50093532
   0.24834964  0.75630856  0.50093532
   0.74834964  0.75630856  0.50093532
   0.00165036  0.25630856  0.24906468
   0.50165036  0.25630856  0.24906468
   0.00165036  0.75630856  0.24906468
   0.50165036  0.75630856  0.24906468
 
 position of ions in cartesian coordinates  (Angst):
   1.49032443  1.23376745  1.30364873
   6.74828936  1.23376745  1.30364873
   1.49032443  6.49897440  1.30364873
   6.74828936  6.49897440  1.30364873
   4.08483167  3.86637093  1.27966344
   9.34279676  3.86637093  1.27966344
   4.08483167  9.13157788  1.27966344
   9.34279676  9.13157788  1.27966344
   2.42465925  3.88937288  9.04159259
   7.68262434  3.88937288  9.04159259
   2.42465925  9.15457983  9.04159259
   7.68262434  9.15457983  9.04159259
   5.05364179  1.27139524  9.04159259
  10.31160688  1.27139524  9.04159259
   5.05364179  6.53660203  9.04159259
  10.31160688  6.53660203  9.04159259
   2.09023074  1.23376745  6.44628778
   7.34819592  1.23376745  6.44628778
   2.09023074  6.49897440  6.44628778
   7.34819592  6.49897440  6.44628778
   4.75368851  3.86637093  6.47027307
  10.01165360  3.86637093  6.47027307
   4.75368851  9.13157788  6.47027307
  10.01165360  9.13157788  6.47027307
   4.41926009  1.25676932  3.87496825
   9.67722518  1.25676932  3.87496825
   4.41926009  6.52197636  3.87496825
   9.67722518  6.52197636  3.87496825
   1.79027755  3.90399856  3.87496825
   7.04824264  3.90399856  3.87496825
   1.79027755  9.16920551  3.87496825
   7.04824264  9.16920551  3.87496825
  11.12046216  0.06832199  5.16675267
   5.86249707  0.06832199  5.16675267
  11.12046216  5.33352895  5.16675267
   5.86249707  5.33352895  5.16675267
   2.97602311  0.06832199  2.58318384
   8.23398820  0.06832199  2.58318384
   2.97602311  5.33352895  2.58318384
   8.23398820  5.33352895  2.58318384
   2.59913283  2.70092547  0.00012833
   7.85709791  2.70092547  0.00012833
   2.59913283  7.96613242  0.00012833
   7.85709791  7.96613242  0.00012833
   0.98142227  2.70092547  7.74980818
   6.23938736  2.70092547  7.74980818
   0.98142227  7.96613242  7.74980818
   6.23938736  7.96613242  7.74980818
  10.49976179  0.06643179  0.00966487
   5.24179671  0.06643179  0.00966487
  10.49976179  5.33163875  0.00966487
   5.24179671  5.33163875  0.00966487
   3.59672348  0.06643179  7.74027163
   8.85468856  0.06643179  7.74027163
   3.59672348  5.33163875  7.74027163
   8.85468856  5.33163875  7.74027163
   3.24719586  2.69903527  5.17628921
   8.50516095  2.69903527  5.17628921
   3.24719586  7.96424222  5.17628921
   8.50516095  7.96424222  5.17628921
   0.33335923  2.69903527  2.57364730
   5.59132432  2.69903527  2.57364730
   0.33335923  7.96424222  2.57364730
   5.59132432  7.96424222  2.57364730
 


--------------------------------------------------------------------------------------------------------


 k-point  1 :   0.0000 0.0000 0.0000  plane waves:   48127
 k-point  2 :   0.2500 0.0000 0.0000  plane waves:   48154
 k-point  3 :   0.5000 0.0000 0.0000  plane waves:   48152
 k-point  4 :   0.0000 0.2500 0.0000  plane waves:   48117
 k-point  5 :   0.2500 0.2500 0.0000  plane waves:   48128
 k-point  6 :   0.5000 0.2500 0.0000  plane waves:   48144
 k-point  7 :   0.0000 0.5000 0.0000  plane waves:   48158
 k-point  8 :   0.2500 0.5000 0.0000  plane waves:   48158
 k-point  9 :   0.5000 0.5000 0.0000  plane waves:   48140
 k-point 10 :   0.0000 0.0000 0.2500  plane waves:   48146
 k-point 11 :   0.2500 0.0000 0.2500  plane waves:   48130
 k-point 12 :   0.5000 0.0000 0.2500  plane waves:   48138
 k-point 13 :  -0.2500 0.0000 0.2500  plane waves:   48102
 k-point 14 :   0.0000 0.2500 0.2500  plane waves:   48135
 k-point 15 :   0.2500 0.2500 0.2500  plane waves:   48107
 k-point 16 :   0.5000 0.2500 0.2500  plane waves:   48107
 k-point 17 :  -0.2500 0.2500 0.2500  plane waves:   48125
 k-point 18 :   0.0000 0.5000 0.2500  plane waves:   48152
 k-point 19 :   0.2500 0.5000 0.2500  plane waves:   48114
 k-point 20 :   0.5000 0.5000 0.2500  plane waves:   48090
 k-point 21 :  -0.2500 0.5000 0.2500  plane waves:   48136
 k-point 22 :   0.0000 0.0000 0.5000  plane waves:   48108
 k-point 23 :   0.2500 0.0000 0.5000  plane waves:   48125
 k-point 24 :   0.5000 0.0000 0.5000  plane waves:   48158
 k-point 25 :   0.0000 0.2500 0.5000  plane waves:   48130
 k-point 26 :   0.2500 0.2500 0.5000  plane waves:   48101
 k-point 27 :   0.5000 0.2500 0.5000  plane waves:   48084
 k-point 28 :   0.0000 0.5000 0.5000  plane waves:   48180
 k-point 29 :   0.2500 0.5000 0.5000  plane waves:   48046
 k-point 30 :   0.5000 0.5000 0.5000  plane waves:   48088

 maximum and minimum number of plane-waves per node :     48180    48046

 maximum number of plane-waves:     48180
 maximum index in each direction: 
   IXMAX=   22   IYMAX=   22   IZMAX=   22
   IXMIN=  -23   IYMIN=  -23   IZMIN=  -22


 serial   3D FFT for wavefunctions
 parallel 3D FFT for charge:
    minimum data exchange during FFTs selected (reduces bandwidth)


 total amount of memory used by VASP MPI-rank0   877761. kBytes
=======================================================================

   base      :      30000. kBytes
   nonl-proj :     676601. kBytes
   fftplans  :       4588. kBytes
   grid      :      69719. kBytes
   one-center:       1990. kBytes
   wavefun   :      94863. kBytes
 
     INWAV:  cpu time   59.8309: real time   60.1684
 Broyden mixing: mesh for mixing (old mesh)
   NGX = 45   NGY = 45   NGZ = 45
  (NGX  =192   NGY  =192   NGZ  =180)
  gives a total of  91125 points

 initial charge density was supplied:
 number of electron     687.9999924 magnetization       0.0000000
 keeping initial charge density in first step


--------------------------------------------------------------------------------------------------------


 Maximum index for augmentation-charges          894 (set IRDMAX)


--------------------------------------------------------------------------------------------------------


 First call to EWALD:  gamma=   0.169
 Maximum number of real-space cells 3x 3x 3
 Maximum number of reciprocal cells 3x 3x 3

    FEWALD:  cpu time    0.0046: real time    0.0056


--------------------------------------- Iteration      1(   1)  ---------------------------------------


    POTLOK:  cpu time    0.3577: real time    1.0222
    SETDIJ:  cpu time    0.0147: real time    0.0148
     EDDAV:  cpu time  380.0585: real time  385.7292
 BZINTS: Fermi energy:  4.963609;688.000000 electrons
         Band energy:***********;  BLOECHL correction:  0.000000
       DOS:  cpu time    0.0417: real time    0.0436
    CHARGE:  cpu time    3.9925: real time    4.1107
    MIXING:  cpu time    0.0050: real time    0.0055
    --------------------------------------------
      LOOP:  cpu time  384.4704: real time  390.9263

 eigenvalue-minimisations  : 66560
 total energy-change (2. order) :-0.3265172E+03  (-0.3290352E-04)
 number of electron     687.9999924 magnetization       0.0000000
 augmentation part      282.2606782 magnetization       0.0000000

 Broyden mixing:
  rms(total) = 0.12396E-02    rms(broyden)= 0.12395E-02
  rms(prec ) = 0.15493E-02
  weight for this iteration     100.00

 Free energy of the ion-electron system (eV)
  ---------------------------------------------------
  alpha Z        PSCENC =      2369.31943573
  Ewald energy   TEWEN  =    -62643.79986293
  -Hartree energ DENC   =    -42845.29249322
  -exchange      EXHF   =         0.00000000
  -V(xc)+E(xc)   XCENC  =      3286.45305276
  PAW double counting   =    112137.34361389  -115828.88470983
  entropy T*S    EENTRO =         0.00000000
  eigenvalues    EBANDS =    -10821.72133565
  atomic energy  EATOM  =    114020.06510763
  Solvation  Ediel_sol  =         0.00000000
  ---------------------------------------------------
  free energy    TOTEN  =      -326.51719162 eV

  energy without entropy =     -326.51719162  energy(sigma->0) =     -326.51719162


--------------------------------------------------------------------------------------------------------




--------------------------------------- Iteration      1(   2)  ---------------------------------------


    POTLOK:  cpu time    0.1556: real time    0.2036
    SETDIJ:  cpu time    0.0138: real time    0.0139
     EDDAV:  cpu time  361.6524: real time  364.3711
 BZINTS: Fermi energy:  5.016978;688.000000 electrons
         Band energy:***********;  BLOECHL correction:  0.000000
       DOS:  cpu time    0.0479: real time    0.0481
    CHARGE:  cpu time    3.9533: real time    3.9869
    MIXING:  cpu time    0.0037: real time    0.1827
    --------------------------------------------
      LOOP:  cpu time  365.8265: real time  368.8060

 eigenvalue-minimisations  : 65792
 total energy-change (2. order) : 0.4296395E-05  (-0.8991164E-06)
 number of electron     687.9999924 magnetization       0.0000000
 augmentation part      282.2597722 magnetization       0.0000000

 Broyden mixing:
  rms(total) = 0.97350E-03    rms(broyden)= 0.97348E-03
  rms(prec ) = 0.11532E-02
  weight for this iteration     100.00

 eigenvalues of (default mixing * dielectric matrix)
  average eigenvalue GAMMA=   0.4869
  0.4869

 Free energy of the ion-electron system (eV)
  ---------------------------------------------------
  alpha Z        PSCENC =      2369.31943573
  Ewald energy   TEWEN  =    -62643.79986293
  -Hartree energ DENC   =    -42845.32601665
  -exchange      EXHF   =         0.00000000
  -V(xc)+E(xc)   XCENC  =      3286.45338376
  PAW double counting   =    112137.14293699  -115828.68683970
  entropy T*S    EENTRO =         0.00000000
  eigenvalues    EBANDS =    -10821.68533216
  atomic energy  EATOM  =    114020.06510763
  Solvation  Ediel_sol  =         0.00000000
  ---------------------------------------------------
  free energy    TOTEN  =      -326.51718732 eV

  energy without entropy =     -326.51718732  energy(sigma->0) =     -326.51718732


--------------------------------------------------------------------------------------------------------




--------------------------------------- Iteration      1(   3)  ---------------------------------------


    POTLOK:  cpu time    0.1500: real time    0.1511
    SETDIJ:  cpu time    0.0133: real time    0.0134
     EDDAV:  cpu time  681.3276: real time  685.8533
 BZINTS: Fermi energy:  5.062129;688.000000 electrons
         Band energy:***********;  BLOECHL correction:  0.000000
       DOS:  cpu time    0.0399: real time    0.0400
    CHARGE:  cpu time    3.9773: real time    4.0038
    MIXING:  cpu time    0.0020: real time    0.0222
    --------------------------------------------
      LOOP:  cpu time  685.5101: real time  690.0838

 eigenvalue-minimisations  : 92160
 total energy-change (2. order) : 0.7286289E-06  (-0.8263082E-06)
 number of electron     687.9999924 magnetization       0.0000000
 augmentation part      282.2601567 magnetization       0.0000000

 Broyden mixing:
  rms(total) = 0.92774E-03    rms(broyden)= 0.92772E-03
  rms(prec ) = 0.10655E-02
  weight for this iteration     100.00

 eigenvalues of (default mixing * dielectric matrix)
  average eigenvalue GAMMA=   0.8376
  1.3250  0.3502

 Free energy of the ion-electron system (eV)
  ---------------------------------------------------
  alpha Z        PSCENC =      2369.31943573
  Ewald energy   TEWEN  =    -62643.79986293
  -Hartree energ DENC   =    -42845.33644660
  -exchange      EXHF   =         0.00000000
  -V(xc)+E(xc)   XCENC  =      3286.45514260
  PAW double counting   =    112137.07912769  -115828.61693302
  entropy T*S    EENTRO =         0.00000000
  eigenvalues    EBANDS =    -10821.68275769
  atomic energy  EATOM  =    114020.06510763
  Solvation  Ediel_sol  =         0.00000000
  ---------------------------------------------------
  free energy    TOTEN  =      -326.51718660 eV

  energy without entropy =     -326.51718660  energy(sigma->0) =     -326.51718660


--------------------------------------------------------------------------------------------------------




--------------------------------------- Iteration      1(   4)  ---------------------------------------


    POTLOK:  cpu time    0.1490: real time    0.1501
    SETDIJ:  cpu time    0.0131: real time    0.0131
     EDDAV:  cpu time  485.7777: real time  489.2225
 BZINTS: Fermi energy:  5.017412;688.000000 electrons
         Band energy:***********;  BLOECHL correction:  0.000000
       DOS:  cpu time    0.0424: real time    0.0425
    CHARGE:  cpu time    4.0061: real time    4.0396
    MIXING:  cpu time    0.0020: real time    0.0027
    --------------------------------------------
      LOOP:  cpu time  489.9901: real time  493.4705

 eigenvalue-minimisations  : 78848
 total energy-change (2. order) : 0.7048802E-06  (-0.3819662E-06)
 number of electron     687.9999924 magnetization       0.0000000
 augmentation part      282.2604022 magnetization       0.0000000

 Broyden mixing:
  rms(total) = 0.21778E-03    rms(broyden)= 0.21776E-03
  rms(prec ) = 0.23744E-03
  weight for this iteration     100.00

 eigenvalues of (default mixing * dielectric matrix)
  average eigenvalue GAMMA=   0.9764
  1.7997  0.7675  0.3622

 Free energy of the ion-electron system (eV)
  ---------------------------------------------------
  alpha Z        PSCENC =      2369.31943573
  Ewald energy   TEWEN  =    -62643.79986293
  -Hartree energ DENC   =    -42845.30500471
  -exchange      EXHF   =         0.00000000
  -V(xc)+E(xc)   XCENC  =      3286.45384003
  PAW double counting   =    112136.97380876  -115828.50604863
  entropy T*S    EENTRO =         0.00000000
  eigenvalues    EBANDS =    -10821.71846178
  atomic energy  EATOM  =    114020.06510763
  Solvation  Ediel_sol  =         0.00000000
  ---------------------------------------------------
  free energy    TOTEN  =      -326.51718589 eV

  energy without entropy =     -326.51718589  energy(sigma->0) =     -326.51718589


--------------------------------------------------------------------------------------------------------




--------------------------------------- Iteration      1(   5)  ---------------------------------------


    POTLOK:  cpu time    0.1488: real time    0.1537
    SETDIJ:  cpu time    0.0131: real time    0.0131
     EDDAV:  cpu time  783.6089: real time  788.7539
 BZINTS: Fermi energy:  5.009456;688.000000 electrons
         Band energy:***********;  BLOECHL correction:  0.000000
       DOS:  cpu time    0.0413: real time    0.0414
    CHARGE:  cpu time    3.9689: real time    4.0006
    MIXING:  cpu time    0.0021: real time    0.0037
    --------------------------------------------
      LOOP:  cpu time  787.7831: real time  792.9665

 eigenvalue-minimisations  :103680
 total energy-change (2. order) : 0.5371112E-07  (-0.5804760E-07)
 number of electron     687.9999924 magnetization       0.0000000
 augmentation part      282.2600770 magnetization       0.0000000

 Broyden mixing:
  rms(total) = 0.13960E-03    rms(broyden)= 0.13960E-03
  rms(prec ) = 0.15431E-03
  weight for this iteration     100.00

 eigenvalues of (default mixing * dielectric matrix)
  average eigenvalue GAMMA=   0.9252
  1.8996  0.3509  0.7252  0.7252

 Free energy of the ion-electron system (eV)
  ---------------------------------------------------
  alpha Z        PSCENC =      2369.31943573
  Ewald energy   TEWEN  =    -62643.79986293
  -Hartree energ DENC   =    -42845.32880896
  -exchange      EXHF   =         0.00000000
  -V(xc)+E(xc)   XCENC  =      3286.45440301
  PAW double counting   =    112137.04280731  -115828.57856572
  entropy T*S    EENTRO =         0.00000000
  eigenvalues    EBANDS =    -10821.69170192
  atomic energy  EATOM  =    114020.06510763
  Solvation  Ediel_sol  =         0.00000000
  ---------------------------------------------------
  free energy    TOTEN  =      -326.51718584 eV

  energy without entropy =     -326.51718584  energy(sigma->0) =     -326.51718584


--------------------------------------------------------------------------------------------------------




--------------------------------------- Iteration      1(   6)  ---------------------------------------


    POTLOK:  cpu time    0.1452: real time    0.1471
    SETDIJ:  cpu time    0.0130: real time    0.0131
     EDDAV:  cpu time  628.4258: real time  632.6240
 BZINTS: Fermi energy:  5.008304;688.000000 electrons
         Band energy:***********;  BLOECHL correction:  0.000000
       DOS:  cpu time    0.0414: real time    0.0416
    CHARGE:  cpu time    4.0008: real time    4.0274
    MIXING:  cpu time    0.0019: real time    0.0019
    --------------------------------------------
      LOOP:  cpu time  632.6281: real time  636.8551

 eigenvalue-minimisations  : 88320
 total energy-change (2. order) : 0.1590524E-07  (-0.1019779E-07)
 number of electron     687.9999924 magnetization       0.0000000
 augmentation part      282.2601133 magnetization       0.0000000

 Broyden mixing:
  rms(total) = 0.86370E-04    rms(broyden)= 0.86367E-04
  rms(prec ) = 0.95776E-04
  weight for this iteration     100.00

 eigenvalues of (default mixing * dielectric matrix)
  average eigenvalue GAMMA=   0.9746
  1.6394  1.6394  0.3455  0.6242  0.6242

 Free energy of the ion-electron system (eV)
  ---------------------------------------------------
  alpha Z        PSCENC =      2369.31943573
  Ewald energy   TEWEN  =    -62643.79986293
  -Hartree energ DENC   =    -42845.32200552
  -exchange      EXHF   =         0.00000000
  -V(xc)+E(xc)   XCENC  =      3286.45410325
  PAW double counting   =    112137.07273895  -115828.60692192
  entropy T*S    EENTRO =         0.00000000
  eigenvalues    EBANDS =    -10821.69978102
  atomic energy  EATOM  =    114020.06510763
  Solvation  Ediel_sol  =         0.00000000
  ---------------------------------------------------
  free energy    TOTEN  =      -326.51718582 eV

  energy without entropy =     -326.51718582  energy(sigma->0) =     -326.51718582


--------------------------------------------------------------------------------------------------------




--------------------------------------- Iteration      1(   7)  ---------------------------------------


    POTLOK:  cpu time    0.1488: real time    0.1502
    SETDIJ:  cpu time    0.0131: real time    0.0131
     EDDAV:  cpu time  589.8215: real time  594.3440
 BZINTS: Fermi energy:  5.008034;688.000000 electrons
         Band energy:***********;  BLOECHL correction:  0.000000
       DOS:  cpu time    0.0411: real time    0.0416
    --------------------------------------------
      LOOP:  cpu time  590.0245: real time  594.5489

 eigenvalue-minimisations  : 75776
 total energy-change (2. order) : 0.5034963E-08  (-0.2898230E-08)
 number of electron     687.9999924 magnetization       0.0000000
 augmentation part      282.2601133 magnetization       0.0000000

 Free energy of the ion-electron system (eV)
  ---------------------------------------------------
  alpha Z        PSCENC =      2369.31943573
  Ewald energy   TEWEN  =    -62643.79986293
  -Hartree energ DENC   =    -42845.32263107
  -exchange      EXHF   =         0.00000000
  -V(xc)+E(xc)   XCENC  =      3286.45417683
  PAW double counting   =    112137.09967831  -115828.63370174
  entropy T*S    EENTRO =         0.00000000
  eigenvalues    EBANDS =    -10821.69938857
  atomic energy  EATOM  =    114020.06510763
  Solvation  Ediel_sol  =         0.00000000
  ---------------------------------------------------
  free energy    TOTEN  =      -326.51718582 eV

  energy without entropy =     -326.51718582  energy(sigma->0) =     -326.51718582


--------------------------------------------------------------------------------------------------------




 average (electrostatic) potential at core
  the test charge radii are     0.9698  0.8297  0.9500
  (the norm of the test charge is              1.0000)
       1 -86.5612       2 -86.5612       3 -86.5612       4 -86.5612       5 -86.5612
       6 -86.5612       7 -86.5612       8 -86.5612       9 -86.6306      10 -86.6306
      11 -86.6306      12 -86.6306      13 -86.4752      14 -86.4752      15 -86.4752
      16 -86.4752      17 -86.5612      18 -86.5612      19 -86.5612      20 -86.5612
      21 -86.5612      22 -86.5612      23 -86.5612      24 -86.5612      25 -86.6306
      26 -86.6306      27 -86.6306      28 -86.6306      29 -86.4752      30 -86.4752
      31 -86.4752      32 -86.4752      33 -80.6389      34 -80.6389      35 -80.6389
      36 -80.6389      37 -80.6389      38 -80.6389      39 -80.6389      40 -80.6389
      41 -80.6389      42 -80.6389      43 -80.6389      44 -80.6389      45 -80.6389
      46 -80.6389      47 -80.6389      48 -80.6389      49 -80.1254      50 -80.1254
      51 -80.1254      52 -80.1254      53 -80.1254      54 -80.1254      55 -80.1254
      56 -80.1254      57 -80.1254      58 -80.1254      59 -80.1254      60 -80.1254
      61 -80.1254      62 -80.1254      63 -80.1254      64 -80.1254
 
 
 
 E-fermi :   5.0080     XC(G=0): -10.5053     alpha+bet :-10.6053


 spin component 1

 k-point     1 :       0.0000    0.0000    0.0000
  band No.  band energies     occupation 
      1     -64.2428      1.00000
      2     -64.2428      1.00000
      3     -64.2428      1.00000
      4     -64.2428      1.00000
      5     -64.2428      1.00000
      6     -64.2428      1.00000
      7     -64.2428      1.00000
      8     -64.2428      1.00000
      9     -64.2323      1.00000
     10     -64.2323      1.00000
     11     -64.2323      1.00000
     12     -64.2323      1.00000
     13     -64.2323      1.00000
     14     -64.2323      1.00000
     15     -64.2323      1.00000
     16     -64.2323      1.00000
     17     -64.2214      1.00000
     18     -64.2214      1.00000
     19     -64.2214      1.00000
     20     -64.2214      1.00000
     21     -64.2214      1.00000
     22     -64.2214      1.00000
     23     -64.2214      1.00000
     24     -64.2214      1.00000
     25     -64.2047      1.00000
     26     -64.2047      1.00000
     27     -64.2047      1.00000
     28     -64.2047      1.00000
     29     -64.2047      1.00000
     30     -64.2047      1.00000
     31     -64.2047      1.00000
     32     -64.2047      1.00000
     33     -64.2027      1.00000
     34     -64.2027      1.00000
     35     -64.2027      1.00000
     36     -64.2027      1.00000
     37     -64.2027      1.00000
     38     -64.2027      1.00000
     39     -64.2027      1.00000
     40     -64.2027      1.00000
     41     -64.1921      1.00000
     42     -64.1921      1.00000
     43     -64.1921      1.00000
     44     -64.1921      1.00000
     45     -64.1921      1.00000
     46     -64.1921      1.00000
     47     -64.1921      1.00000
     48     -64.1921      1.00000
     49     -51.8492      1.00000
     50     -51.8492      1.00000
     51     -51.8492      1.00000
     52     -51.8492      1.00000
     53     -51.8492      1.00000
     54     -51.8492      1.00000
     55     -51.8492      1.00000
     56     -51.8492      1.00000
     57     -51.7087      1.00000
     58     -51.7087      1.00000
     59     -51.7087      1.00000
     60     -51.7087      1.00000
     61     -51.7087      1.00000
     62     -51.7087      1.00000
     63     -51.7087      1.00000
     64     -51.7087      1.00000
     65     -51.6996      1.00000
     66     -51.6996      1.00000
     67     -51.6996      1.00000
     68     -51.6996      1.00000
     69     -51.6996      1.00000
     70     -51.6996      1.00000
     71     -51.6996      1.00000
     72     -51.6996      1.00000
     73     -47.6576      1.00000
     74     -47.6576      1.00000
     75     -47.6576      1.00000
     76     -47.6576      1.00000
     77     -47.6576      1.00000
     78     -47.6576      1.00000
     79     -47.6576      1.00000
     80     -47.6576      1.00000
     81     -47.6198      1.00000
     82     -47.6198      1.00000
     83     -47.6198      1.00000
     84     -47.6198      1.00000
     85     -47.6198      1.00000
     86     -47.6198      1.00000
     87     -47.6198      1.00000
     88     -47.6198      1.00000
     89     -47.6143      1.00000
     90     -47.6143      1.00000
     91     -47.6143      1.00000
     92     -47.6143      1.00000
     93     -47.6143      1.00000
     94     -47.6143      1.00000
     95     -47.6143      1.00000
     96     -47.6143      1.00000
     97      -9.0699      1.00000
     98      -8.4643      1.00000
     99      -8.4643      1.00000
    100      -8.4343      1.00000
    101      -8.4343      1.00000
    102      -8.4323      1.00000
    103      -8.4099      1.00000
    104      -8.1858      1.00000
    105      -8.1858      1.00000
    106      -8.1668      1.00000
    107      -8.1601      1.00000
    108      -8.0845      1.00000
    109      -8.0699      1.00000
    110      -8.0699      1.00000
    111      -8.0672      1.00000
    112      -8.0503      1.00000
    113      -8.0437      1.00000
    114      -8.0437      1.00000
    115      -8.0418      1.00000
    116      -7.9195      1.00000
    117      -7.9195      1.00000
    118      -7.8731      1.00000
    119      -7.8711      1.00000
    120      -7.7330      1.00000
    121      -7.7253      1.00000
    122      -7.6966      1.00000
    123      -7.6735      1.00000
    124      -7.6735      1.00000
    125      -7.6509      1.00000
    126      -7.6325      1.00000
    127      -7.6325      1.00000
    128      -7.5942      1.00000
    129      -1.9878      1.00000
    130      -1.9878      1.00000
    131      -1.9662      1.00000
    132      -1.9505      1.00000
    133      -1.9505      1.00000
    134      -1.9328      1.00000
    135      -1.8991      1.00000
    136      -1.8905      1.00000
    137      -1.8893      1.00000
    138      -1.8245      1.00000
    139      -1.8245      1.00000
    140      -1.8243      1.00000
    141      -1.8243      1.00000
    142      -1.7996      1.00000
    143      -1.7898      1.00000
    144      -1.7796      1.00000
    145      -1.7704      1.00000
    146      -1.7525      1.00000
    147      -1.7525      1.00000
    148      -1.7485      1.00000
    149      -1.7405      1.00000
    150      -1.7405      1.00000
    151      -1.7367      1.00000
    152      -1.7044      1.00000
    153      -1.7039      1.00000
    154      -1.6995      1.00000
    155      -1.6928      1.00000
    156      -1.6928      1.00000
    157      -1.6741      1.00000
    158      -1.6636      1.00000
    159      -1.6636      1.00000
    160      -1.6339      1.00000
    161      -1.6323      1.00000
    162      -1.6268      1.00000
    163      -1.6268      1.00000
    164      -1.6097      1.00000
    165      -1.6097      1.00000
    166      -1.5883      1.00000
    167      -1.5752      1.00000
    168      -1.5733      1.00000
    169      -1.0063      1.00000
    170      -0.9904      1.00000
    171      -0.7282      1.00000
    172      -0.7036      1.00000
    173      -0.6916      1.00000
    174      -0.4104      1.00000
    175      -0.2035      1.00000
    176      -0.2035      1.00000
    177      -0.1751      1.00000
    178      -0.1751      1.00000
    179      -0.1415      1.00000
    180      -0.1218      1.00000
    181      -0.0543      1.00000
    182      -0.0104      1.00000
    183      -0.0104      1.00000
    184       0.0151      1.00000
    185       0.0151      1.00000
    186       0.1200      1.00000
    187       0.1238      1.00000
    188       0.1306      1.00000
    189       0.1306      1.00000
    190       0.1625      1.00000
    191       0.1850      1.00000
    192       0.1850      1.00000
    193       0.2542      1.00000
    194       0.3535      1.00000
    195       0.3535      1.00000
    196       0.3547      1.00000
    197       0.3547      1.00000
    198       0.3823      1.00000
    199       0.4111      1.00000
    200       0.7377      1.00000
    201       0.8011      1.00000
    202       0.8154      1.00000
    203       0.8175      1.00000
    204       0.8409      1.00000
    205       0.8409      1.00000
    206       0.8615      1.00000
    207       0.8615      1.00000
    208       0.9285      1.00000
    209       0.9285      1.00000
    210       0.9579      1.00000
    211       0.9579      1.00000
    212       1.0588      1.00000
    213       1.0588      1.00000
    214       1.1122      1.00000
    215       1.1122      1.00000
    216       1.1539      1.00000
    217       1.1793      1.00000
    218       1.1801      1.00000
    219       1.2038      1.00000
    220       1.2480      1.00000
    221       1.2607      1.00000
    222       1.2607      1.00000
    223       1.2688      1.00000
    224       1.2803      1.00000
    225       1.2917      1.00000
    226       1.2984      1.00000
    227       1.2984      1.00000
    228       1.3176      1.00000
    229       1.3564      1.00000
    230       1.3584      1.00000
    231       1.3684      1.00000
    232       1.3793      1.00000
    233       1.3793      1.00000
    234       1.3802      1.00000
    235       1.3802      1.00000
    236       1.3942      1.00000
    237       1.4094      1.00000
    238       1.6181      1.00000
    239       1.6345      1.00000
    240       1.6370      1.00000
    241       1.6651      1.00000
    242       1.8519      1.00000
    243       1.8519      1.00000
    244       1.8744      1.00000
    245       1.8744      1.00000
    246       1.8952      1.00000
    247       1.9260      1.00000
    248       1.9520      1.00000
    249       1.9532      1.00000
    250       1.9532      1.00000
    251       1.9780      1.00000
    252       1.9835      1.00000
    253       1.9835      1.00000
    254       2.0057      1.00000
    255       2.1388      1.00000
    256       2.1851      1.00000
    257       2.2060      1.00000
    258       2.2763      1.00000
    259       2.2763      1.00000
    260       2.2969      1.00000
    261       2.3258      1.00000
    262       2.3498      1.00000
    263       2.3498      1.00000
    264       2.4927      1.00000
    265       2.7037      1.00000
    266       2.7940      1.00000
    267       2.8105      1.00000
    268       2.8105      1.00000
    269       2.8244      1.00000
    270       2.8244      1.00000
    271       2.8381      1.00000
    272       2.8387      1.00000
    273       2.8432      1.00000
    274       2.8432      1.00000
    275       2.8693      1.00000
    276       2.8693      1.00000
    277       2.8712      1.00000
    278       2.8714      1.00000
    279       2.8816      1.00000
    280       2.9509      1.00000
    281       2.9696      1.00000
    282       2.9696      1.00000
    283       3.0225      1.00000
    284       3.0225      1.00000
    285       3.0317      1.00000
    286       3.0597      1.00000
    287       3.0778      1.00000
    288       3.0850      1.00000
    289       3.1467      1.00000
    290       3.1493      1.00000
    291       3.2549      1.00000
    292       3.2549      1.00000
    293       3.2587      1.00000
    294       3.2713      1.00000
    295       3.2713      1.00000
    296       3.3321      1.00000
    297       3.3421      1.00000
    298       3.3645      1.00000
    299       3.4208      1.00000
    300       3.4208      1.00000
    301       3.4753      1.00000
    302       3.4753      1.00000
    303       3.4781      1.00000
    304       3.5222      1.00000
    305       3.5222      1.00000
    306       3.5253      1.00000
    307       3.5312      1.00000
    308       3.5959      1.00000
    309       3.5959      1.00000
    310       3.6123      1.00000
    311       3.7289      1.00000
    312       3.7568      1.00000
    313       3.7569      1.00000
    314       3.7983      1.00000
    315       3.8112      1.00000
    316       3.8249      1.00000
    317       3.8249      1.00000
    318       3.9980      1.00000
    319       4.0513      1.00000
    320       4.0718      1.00000
    321       4.0718      1.00000
    322       4.1011      1.00000
    323       4.1011      1.00000
    324       4.1196      1.00000
    325       4.1338      1.00000
[...]
 simple monoclinic supercell.


 Subroutine GETGRP returns: Found  2 space group operations
 (whereof  1 operations were pure point group operations)
 out of a pool of  4 trial point group operations.


The static configuration has the point symmetry C_1 .
 The point group associated with its full space group is C_2 .


Analysis of symmetry for dynamics (positions and initial velocities):
=====================================================================
 Subroutine PRICEL returns following result:
 
  LATTYP: Found a base centered monoclinic cell.
 ALAT       =    11.0765409005
 B/A-ratio  =     0.4753475838
 C/A-ratio  =     0.9399007926
 COS(beta)  =    -0.7966287342
  
  Lattice vectors:
  
 A1 = (  -1.9946008432,  -2.6326034768,   5.1666243386)
 A2 = (  -1.9946008432,   2.6326034768,   5.1666243386)
 A3 = (  -1.2687634015,   0.0000000000, -10.3332486772)
 
   8 primitive cells build up your supercell.
 

 Routine SETGRP: Setting up the symmetry group for a 
 simple monoclinic supercell.


 Subroutine GETGRP returns: Found  2 space group operations
 (whereof  1 operations were pure point group operations)
 out of a pool of  4 trial point group operations.


The dynamic configuration has the point symmetry C_1 .
 The point group associated with its full space group is C_2 .


Analysis of structural, dynamic, and magnetic symmetry:
=====================================================================
 Subroutine PRICEL returns following result:
 
  LATTYP: Found a base centered monoclinic cell.
 ALAT       =    11.0765409005
 B/A-ratio  =     0.4753475838
 C/A-ratio  =     0.9399007926
 COS(beta)  =    -0.7966287342
  
  Lattice vectors:
  
 A1 = (  -1.9946008432,  -2.6326034768,   5.1666243386)
 A2 = (  -1.9946008432,   2.6326034768,   5.1666243386)
 A3 = (  -1.2687634015,   0.0000000000, -10.3332486772)
 
   8 primitive cells build up your supercell.
 

 Routine SETGRP: Setting up the symmetry group for a 
 simple monoclinic supercell.


 Subroutine GETGRP returns: Found  2 space group operations
 (whereof  1 operations were pure point group operations)
 out of a pool of  4 trial point group operations.


The magnetic configuration has the point symmetry C_1 .
 The point group associated with its full space group is C_2 .


 Subroutine INISYM returns: Found  2 space group operations
 (whereof  1 operations are pure point group operations),
 and found     8 'primitive' translations



--------------------------------------------------------------------------------------------------------




 MACROSCOPIC STATIC DIELECTRIC TENSOR (including local field effects in DFT)
 ------------------------------------------------------
      287221.814555     0.000000 37322.520997
           0.000000385034.088807     0.000000
       37321.384470     0.000000317367.466759
 ------------------------------------------------------


 PIEZOELECTRIC TENSOR (including local field effects)  for field in x, y, z        (e  Angst)
          XX          YY          ZZ          XY          YZ          ZX
  --------------------------------------------------------------------------------
  x     1.65544   -41.54958   -51.02745    -8.07524    14.20076     5.45480
  y   -56.08577    71.10729   -60.25095     0.00000     0.00000   -59.88054
  z    44.34882    69.69120    48.68019   -48.84577   -30.94139   -10.03414

 PIEZOELECTRIC TENSOR (including local field effects)  for field in x, y, z        (C/m^2)
          XX          YY          ZZ          XY          YZ          ZX
  --------------------------------------------------------------------------------
  x     0.00000     0.00000     0.00000    -0.11307     0.19883     0.00000
  y    -0.78530     0.99562    -0.84362     0.00000     0.00000    -0.83843
  z     0.00000     0.00000     0.00000    -0.68392    -0.43323     0.00000
 
 BORN EFFECTIVE CHARGES (including local field effects) (in e, cummulative output)
 ---------------------------------------------------------------------------------
 ion    1
    1    -2.58414     3.90764     1.34977
    2     0.96954    -1.50145    -0.65305
    3     3.87174    -1.46383    -0.48228
 ion    2
    1    -2.58414     3.90764     1.34977
    2     0.96954    -1.50145    -0.65305
    3     3.87174    -1.46383    -0.48228
 ion    3
    1    -2.58414     3.90764     1.34977
    2     0.96954    -1.50145    -0.65305
    3     3.87174    -1.46383    -0.48228
 ion    4
    1    -2.58414     3.90764     1.34977
    2     0.96954    -1.50145    -0.65305
    3     3.87174    -1.46383    -0.48228
 ion    5
    1    -7.12719    -1.71111     2.03800
    2    -0.96954    -1.50145     0.65305
    3    -0.80158     2.45234    -0.92785
 ion    6
    1    -7.12719    -1.71111     2.03800
    2    -0.96954    -1.50145     0.65305
    3    -0.80158     2.45234    -0.92785
 ion    7
    1    -7.12719    -1.71111     2.03800
    2    -0.96954    -1.50145     0.65305
    3    -0.80158     2.45234    -0.92785
 ion    8
    1    -7.12719    -1.71111     2.03800
    2    -0.96954    -1.50145     0.65305
    3    -0.80158     2.45234    -0.92785
 ion    9
    1     6.01076    -0.40365    -0.52465
    2     0.00000    -2.49656    -0.00000
    3     0.65019     0.94752    -3.09523
 ion   10
    1     6.01076    -0.40365    -0.52465
    2     0.00000    -2.49656    -0.00000
    3     0.65019     0.94752    -3.09523
 ion   11
    1     6.01076    -0.40365    -0.52465
    2     0.00000    -2.49656    -0.00000
    3     0.65019     0.94752    -3.09523
 ion   12
    1     6.01076    -0.40365    -0.52465
    2     0.00000    -2.49656    -0.00000
    3     0.65019     0.94752    -3.09523
 ion   13
    1     1.27738    -0.27758     1.02735
    2     0.00000    -2.51997    -0.00000
    3    -1.94096     1.37113    -5.59020
 ion   14
    1     1.27738    -0.27758     1.02735
    2     0.00000    -2.51997    -0.00000
    3    -1.94096     1.37113    -5.59020
 ion   15
    1     1.27738    -0.27758     1.02735
    2     0.00000    -2.51997    -0.00000
    3    -1.94096     1.37113    -5.59020
 ion   16
    1     1.27738    -0.27758     1.02735
    2     0.00000    -2.51997    -0.00000
    3    -1.94096     1.37113    -5.59020
 ion   17
    1    -7.12719    -1.71111     2.03800
    2    -0.96954    -1.50145     0.65305
    3    -0.80158     2.45234    -0.92785
 ion   18
    1    -7.12719    -1.71111     2.03800
    2    -0.96954    -1.50145     0.65305
    3    -0.80158     2.45234    -0.92785
 ion   19
    1    -7.12719    -1.71111     2.03800
    2    -0.96954    -1.50145     0.65305
    3    -0.80158     2.45234    -0.92785
 ion   20
    1    -7.12719    -1.71111     2.03800
    2    -0.96954    -1.50145     0.65305
    3    -0.80158     2.45234    -0.92785
 ion   21
    1    -2.58414     3.90764     1.34977
    2     0.96954    -1.50145    -0.65305
    3     3.87174    -1.46383    -0.48228
 ion   22
    1    -2.58414     3.90764     1.34977
    2     0.96954    -1.50145    -0.65305
    3     3.87174    -1.46383    -0.48228
 ion   23
    1    -2.58414     3.90764     1.34977
    2     0.96954    -1.50145    -0.65305
    3     3.87174    -1.46383    -0.48228
 ion   24
    1    -2.58414     3.90764     1.34977
    2     0.96954    -1.50145    -0.65305
    3     3.87174    -1.46383    -0.48228
 ion   25
    1     6.01076    -0.40365    -0.52465
    2     0.00000    -2.49656    -0.00000
    3     0.65019     0.94752    -3.09523
 ion   26
    1     6.01076    -0.40365    -0.52465
    2     0.00000    -2.49656    -0.00000
    3     0.65019     0.94752    -3.09523
 ion   27
    1     6.01076    -0.40365    -0.52465
    2     0.00000    -2.49656    -0.00000
    3     0.65019     0.94752    -3.09523
 ion   28
    1     6.01076    -0.40365    -0.52465
    2     0.00000    -2.49656    -0.00000
    3     0.65019     0.94752    -3.09523
 ion   29
    1     1.27738    -0.27758     1.02735
    2     0.00000    -2.51997    -0.00000
    3    -1.94096     1.37113    -5.59020
 ion   30
    1     1.27738    -0.27758     1.02735
    2     0.00000    -2.51997    -0.00000
    3    -1.94096     1.37113    -5.59020
 ion   31
    1     1.27738    -0.27758     1.02735
    2     0.00000    -2.51997    -0.00000
    3    -1.94096     1.37113    -5.59020
 ion   32
    1     1.27738    -0.27758     1.02735
    2     0.00000    -2.51997    -0.00000
    3    -1.94096     1.37113    -5.59020
 ion   33
    1     4.39289     5.12808    -1.75954
    2    -0.07409     1.42196    -0.33627
    3     0.17280    -1.93141     2.52465
 ion   34
    1     4.39289     5.12808    -1.75954
    2    -0.07409     1.42196    -0.33627
    3     0.17280    -1.93141     2.52465
 ion   35
    1     4.39289     5.12808    -1.75954
    2    -0.07409     1.42196    -0.33627
    3     0.17280    -1.93141     2.52465
 ion   36
    1     4.39289     5.12808    -1.75954
    2    -0.07409     1.42196    -0.33627
    3     0.17280    -1.93141     2.52465
 ion   37
    1     1.30453    -7.82346    -2.37539
    2     0.07409     1.42196     0.33627
    3     2.27391    -1.91144     4.16693
 ion   38
    1     1.30453    -7.82346    -2.37539
    2     0.07409     1.42196     0.33627
    3     2.27391    -1.91144     4.16693
 ion   39
    1     1.30453    -7.82346    -2.37539
    2     0.07409     1.42196     0.33627
    3     2.27391    -1.91144     4.16693
 ion   40
    1     1.30453    -7.82346    -2.37539
    2     0.07409     1.42196     0.33627
    3     2.27391    -1.91144     4.16693
 ion   41
    1     4.39289     5.12808    -1.75954
    2    -0.07409     1.42196    -0.33627
    3     0.17280    -1.93141     2.52465
 ion   42
    1     4.39289     5.12808    -1.75954
    2    -0.07409     1.42196    -0.33627
    3     0.17280    -1.93141     2.52465
 ion   43
    1     4.39289     5.12808    -1.75954
    2    -0.07409     1.42196    -0.33627
    3     0.17280    -1.93141     2.52465
 ion   44
    1     4.39289     5.12808    -1.75954
    2    -0.07409     1.42196    -0.33627
    3     0.17280    -1.93141     2.52465
 ion   45
    1     1.30453    -7.82346    -2.37539
    2     0.07409     1.42196     0.33627
    3     2.27391    -1.91144     4.16693
 ion   46
    1     1.30453    -7.82346    -2.37539
    2     0.07409     1.42196     0.33627
    3     2.27391    -1.91144     4.16693
 ion   47
    1     1.30453    -7.82346    -2.37539
    2     0.07409     1.42196     0.33627
    3     2.27391    -1.91144     4.16693
 ion   48
    1     1.30453    -7.82346    -2.37539
    2     0.07409     1.42196     0.33627
    3     2.27391    -1.91144     4.16693
 ion   49
    1    -0.63866     1.02185    -0.22124
    2     1.31561     2.58775    -0.89980
    3    -1.77761    -0.38471    -0.66566
 ion   50
    1    -0.63866     1.02185    -0.22124
    2     1.31561     2.58775    -0.89980
    3    -1.77761    -0.38471    -0.66566
 ion   51
    1    -0.63866     1.02185    -0.22124
    2     1.31561     2.58775    -0.89980
    3    -1.77761    -0.38471    -0.66566
 ion   52
    1    -0.63866     1.02185    -0.22124
    2     1.31561     2.58775    -0.89980
    3    -1.77761    -0.38471    -0.66566
 ion   53
    1    -2.63557     0.15823     0.46570
    2    -1.31561     2.58775     0.89980
    3    -2.44850     0.92040     4.06965
 ion   54
    1    -2.63557     0.15823     0.46570
    2    -1.31561     2.58775     0.89980
    3    -2.44850     0.92040     4.06965
 ion   55
    1    -2.63557     0.15823     0.46570
    2    -1.31561     2.58775     0.89980
    3    -2.44850     0.92040     4.06965
 ion   56
    1    -2.63557     0.15823     0.46570
    2    -1.31561     2.58775     0.89980
    3    -2.44850     0.92040     4.06965
 ion   57
    1    -0.63866     1.02185    -0.22124
    2     1.31561     2.58775    -0.89980
    3    -1.77761    -0.38471    -0.66566
 ion   58
    1    -0.63866     1.02185    -0.22124
    2     1.31561     2.58775    -0.89980
    3    -1.77761    -0.38471    -0.66566
 ion   59
    1    -0.63866     1.02185    -0.22124
    2     1.31561     2.58775    -0.89980
    3    -1.77761    -0.38471    -0.66566
 ion   60
    1    -0.63866     1.02185    -0.22124
    2     1.31561     2.58775    -0.89980
    3    -1.77761    -0.38471    -0.66566
 ion   61
    1    -2.63557     0.15823     0.46570
    2    -1.31561     2.58775     0.89980
    3    -2.44850     0.92040     4.06965
 ion   62
    1    -2.63557     0.15823     0.46570
    2    -1.31561     2.58775     0.89980
    3    -2.44850     0.92040     4.06965
 ion   63
    1    -2.63557     0.15823     0.46570
    2    -1.31561     2.58775     0.89980
    3    -2.44850     0.92040     4.06965
 ion   64
    1    -2.63557     0.15823     0.46570
    2    -1.31561     2.58775     0.89980
    3    -2.44850     0.92040     4.06965


--------------------------------------------------------------------------------------------------------


 writing wavefunctions
     LOOP+:  cpu time62764.9649: real time64069.5364
    4ORBIT:  cpu time    0.0002: real time    0.0018
 


 total charge     
 
# of ion       s       p       d       tot
------------------------------------------
    1        1.316   2.405   0.000   3.720
    2        1.316   2.405   0.000   3.720
    3        1.316   2.405   0.000   3.720
    4        1.316   2.405   0.000   3.720
    5        1.315   2.405   0.000   3.720
    6        1.315   2.405   0.000   3.720
    7        1.315   2.405   0.000   3.720
    8        1.315   2.405   0.000   3.720
    9        1.317   2.399   0.000   3.716
   10        1.317   2.399   0.000   3.716
   11        1.317   2.399   0.000   3.716
   12        1.317   2.399   0.000   3.716
   13        1.313   2.411   0.000   3.724
   14        1.313   2.411   0.000   3.724
   15        1.313   2.411   0.000   3.724
   16        1.313   2.411   0.000   3.724
   17        1.315   2.405   0.000   3.720
   18        1.315   2.405   0.000   3.720
   19        1.315   2.405   0.000   3.720
   20        1.315   2.405   0.000   3.720
   21        1.316   2.405   0.000   3.720
   22        1.316   2.405   0.000   3.720
   23        1.316   2.405   0.000   3.720
   24        1.316   2.405   0.000   3.720
   25        1.317   2.399   0.000   3.716
   26        1.317   2.399   0.000   3.716
   27        1.317   2.399   0.000   3.716
   28        1.317   2.399   0.000   3.716
   29        1.313   2.411   0.000   3.724
   30        1.313   2.411   0.000   3.724
   31        1.313   2.411   0.000   3.724
   32        1.313   2.411   0.000   3.724
   33        0.258   6.200   8.917  15.375
   34        0.258   6.200   8.917  15.375
   35        0.258   6.200   8.917  15.375
   36        0.258   6.200   8.917  15.375
   37        0.258   6.200   8.917  15.374
   38        0.258   6.200   8.917  15.374
   39        0.258   6.200   8.917  15.374
   40        0.258   6.200   8.917  15.374
   41        0.258   6.200   8.917  15.375
   42        0.258   6.200   8.917  15.375
   43        0.258   6.200   8.917  15.375
   44        0.258   6.200   8.917  15.375
   45        0.258   6.200   8.917  15.374
   46        0.258   6.200   8.917  15.374
   47        0.258   6.200   8.917  15.374
   48        0.258   6.200   8.917  15.374
   49        0.347   6.346   5.825  12.518
   50        0.347   6.346   5.825  12.518
   51        0.347   6.346   5.825  12.518
   52        0.347   6.346   5.825  12.518
   53        0.347   6.346   5.825  12.518
   54        0.347   6.346   5.825  12.518
   55        0.347   6.346   5.825  12.518
   56        0.347   6.346   5.825  12.518
   57        0.347   6.346   5.825  12.518
   58        0.347   6.346   5.825  12.518
   59        0.347   6.346   5.825  12.518
   60        0.347   6.346   5.825  12.518
   61        0.347   6.346   5.825  12.518
   62        0.347   6.346   5.825  12.518
   63        0.347   6.346   5.825  12.518
   64        0.347   6.346   5.825  12.518
--------------------------------------------------
tot         51.757 277.687 235.875 565.319
 


 magnetization (x)
 
# of ion       s       p       d       tot
------------------------------------------
    1       -0.000  -0.030   0.000  -0.030
    2       -0.000  -0.030   0.000  -0.030
    3       -0.000  -0.030   0.000  -0.030
    4       -0.000  -0.030   0.000  -0.030
    5        0.000   0.030   0.000   0.030
    6        0.000   0.030   0.000   0.030
    7        0.000   0.030   0.000   0.030
    8        0.000   0.030   0.000   0.030
    9       -0.000   0.000   0.000   0.000
   10       -0.000   0.000   0.000   0.000
   11       -0.000   0.000   0.000   0.000
   12       -0.000   0.000   0.000   0.000
   13       -0.000   0.000   0.000   0.000
   14       -0.000   0.000   0.000   0.000
   15       -0.000   0.000   0.000   0.000
   16       -0.000   0.000   0.000   0.000
   17        0.000   0.030   0.000   0.030
   18        0.000   0.030   0.000   0.030
   19        0.000   0.030   0.000   0.030
   20        0.000   0.030   0.000   0.030
   21       -0.000  -0.030   0.000  -0.030
   22       -0.000  -0.030   0.000  -0.030
   23       -0.000  -0.030   0.000  -0.030
   24       -0.000  -0.030   0.000  -0.030
   25       -0.000   0.000   0.000   0.000
   26       -0.000   0.000   0.000   0.000
   27       -0.000   0.000   0.000   0.000
   28       -0.000   0.000   0.000   0.000
   29       -0.000   0.000   0.000   0.000
   30       -0.000   0.000   0.000   0.000
   31       -0.000   0.000   0.000   0.000
   32       -0.000   0.000   0.000   0.000
   33        0.000   0.001  -0.005  -0.003
   34        0.000   0.001  -0.005  -0.003
   35        0.000   0.001  -0.005  -0.003
   36        0.000   0.001  -0.005  -0.003
   37       -0.000  -0.001   0.005   0.003
   38       -0.000  -0.001   0.005   0.003
   39       -0.000  -0.001   0.005   0.003
   40       -0.000  -0.001   0.005   0.003
   41        0.000   0.001  -0.005  -0.003
   42        0.000   0.001  -0.005  -0.003
   43        0.000   0.001  -0.005  -0.003
   44        0.000   0.001  -0.005  -0.003
   45       -0.000  -0.001   0.005   0.003
   46       -0.000  -0.001   0.005   0.003
   47       -0.000  -0.001   0.005   0.003
   48       -0.000  -0.001   0.005   0.003
   49        0.020   0.054   3.663   3.737
   50        0.020   0.054   3.663   3.737
   51        0.020   0.054   3.663   3.737
   52        0.020   0.054   3.663   3.737
   53       -0.020  -0.054  -3.663  -3.737
   54       -0.020  -0.054  -3.663  -3.737
   55       -0.020  -0.054  -3.663  -3.737
   56       -0.020  -0.054  -3.663  -3.737
   57        0.020   0.054   3.663   3.737
   58        0.020   0.054   3.663   3.737
   59        0.020   0.054   3.663   3.737
   60        0.020   0.054   3.663   3.737
   61       -0.020  -0.054  -3.663  -3.737
   62       -0.020  -0.054  -3.663  -3.737
   63       -0.020  -0.054  -3.663  -3.737
   64       -0.020  -0.054  -3.663  -3.737
--------------------------------------------------
tot         -0.001   0.002  -0.001   0.001
 
 BZINTS: Fermi energy:  5.007744;688.000000 electrons
         Band energy:***********;  BLOECHL correction:  0.000000

 total amount of memory used by VASP MPI-rank0   877761. kBytes
=======================================================================

   base      :      30000. kBytes
   nonl-proj :     676601. kBytes
   fftplans  :       4588. kBytes
   grid      :      69719. kBytes
   one-center:       1990. kBytes
   wavefun   :      94863. kBytes
 
  
  
 General timing and accounting informations for this job:
 ========================================================
  
                  Total CPU time used (sec):    62914.688
                            User time (sec):    62709.703
                          System time (sec):      204.983
                         Elapsed time (sec):    64226.376
  
                   Maximum memory used (kb):     1962008.
                   Average memory used (kb):           0.
  
                          Minor page faults:     53485369
                          Major page faults:        32060
                 Voluntary context switches:        42655
