       N       E                     dE             d eps       ncg     rms          rms(c)
DAV:   1     0.618898341124E+04    0.61890E+04   -0.50334E+05 12288   0.195E+03
DAV:   2    -0.878843376668E+02   -0.62769E+04   -0.61451E+04 12800   0.440E+02
DAV:   3    -0.370284219642E+03   -0.28240E+03   -0.28110E+03 17408   0.102E+02
DAV:   4    -0.374264263015E+03   -0.39800E+01   -0.39797E+01 13312   0.125E+01
DAV:   5    -0.374366976929E+03   -0.10271E+00   -0.10271E+00 17408   0.201E+00    0.752E+01
DAV:   6    -0.333205558539E+03    0.41161E+02   -0.59859E+02 12288   0.821E+01    0.101E+02
DAV:   7    -0.327058111883E+03    0.61474E+01   -0.12941E+02 12288   0.283E+01    0.438E+01
DAV:   8    -0.327798800577E+03   -0.74069E+00   -0.45947E+01 14848   0.229E+01    0.352E+01
DAV:   9    -0.329005006785E+03   -0.12062E+01   -0.12444E+02 14848   0.261E+01    0.240E+01
DAV:  10    -0.325314581535E+03    0.36904E+01   -0.20293E+01 15360   0.153E+01    0.293E+00
DAV:  11    -0.325411520101E+03   -0.96939E-01   -0.15799E+00 19968   0.229E+00    0.356E+00
DAV:  12    -0.325413936326E+03   -0.24162E-02   -0.45448E-01 15360   0.169E+00    0.135E+00
DAV:  13    -0.325431388703E+03   -0.17452E-01   -0.45133E-02 15872   0.285E-01    0.912E-01
DAV:  14    -0.325449323135E+03   -0.17934E-01   -0.12964E-01 15872   0.539E-01    0.504E-01
DAV:  15    -0.325450291820E+03   -0.96869E-03   -0.90095E-03 15104   0.193E-01    0.251E-01
DAV:  16    -0.325451021008E+03   -0.72919E-03   -0.19211E-03 18432   0.745E-02    0.159E-01
DAV:  17    -0.325452284344E+03   -0.12633E-02   -0.79316E-03 14592   0.883E-02    0.642E-02
DAV:  18    -0.325452358826E+03   -0.74482E-04   -0.52622E-04 16384   0.397E-02    0.719E-02
DAV:  19    -0.325452356221E+03    0.26050E-05   -0.11650E-04 17408   0.216E-02    0.375E-02
DAV:  20    -0.325452362319E+03   -0.60978E-05   -0.96731E-05 17920   0.183E-02    0.238E-02
DAV:  21    -0.325452363541E+03   -0.12223E-05   -0.11710E-05 15360   0.609E-03    0.150E-02
DAV:  22    -0.325452362689E+03    0.85242E-06   -0.32816E-06 21248   0.369E-03    0.923E-03
DAV:  23    -0.325452363096E+03   -0.40732E-06   -0.23437E-06 19456   0.270E-03    0.325E-03
DAV:  24    -0.325452363115E+03   -0.19121E-07   -0.65608E-07 15360   0.973E-04    0.264E-03
DAV:  25    -0.325452363133E+03   -0.17972E-07   -0.24488E-08 15360   0.301E-04    0.166E-03
DAV:  26    -0.325452363184E+03   -0.51165E-07   -0.35512E-08 15104   0.270E-04    0.370E-04
DAV:  27    -0.325452363224E+03   -0.39770E-07   -0.31605E-08 10752   0.194E-04    0.409E-04
DAV:  28    -0.325452363221E+03    0.24593E-08   -0.24641E-09 10752   0.133E-04
   1 F= -.32545236E+03 E0= -.32545236E+03  d E =0.000000E+00  mag=    -0.0000
