 vasp.5.4.4.18Apr17-6-g9f103f2a35 (build Oct 30 2023 17:30:16) complex          
  
 executed on             LinuxIFC date 2024.06.29  01:38:42
 running on  256 total cores
 distrk:  each k-point on  256 cores,    1 groups
 distr:  one band on NCORES_PER_BAND=   1 cores,  256 groups


--------------------------------------------------------------------------------------------------------


 INCAR:
 POTCAR:    PAW_PBE S 06Sep2000                   
 POTCAR:     PAW_PBE Cu_pv 06Sep2000              
 POTCAR:     PAW_PBE Fe_pv 02Aug2007              

 ----------------------------------------------------------------------------- 
|                                                                             |
|           W    W    AA    RRRRR   N    N  II  N    N   GGGG   !!!           |
|           W    W   A  A   R    R  NN   N  II  NN   N  G    G  !!!           |
|           W    W  A    A  R    R  N N  N  II  N N  N  G       !!!           |
|           W WW W  AAAAAA  RRRRR   N  N N  II  N  N N  G  GGG   !            |
|           WW  WW  A    A  R   R   N   NN  II  N   NN  G    G                |
|           W    W  A    A  R    R  N    N  II  N    N   GGGG   !!!           |
|                                                                             |
|      For optimal performance we recommend to set                            |
|        NCORE= 4 - approx SQRT( number of cores)                             |
|      NCORE specifies how many cores store one orbital (NPAR=cpu/NCORE).     |
|      This setting can  greatly improve the performance of VASP for DFT.     |
|      The default,   NCORE=1            might be grossly inefficient         |
|      on modern multi-core architectures or massively parallel machines.     |
|      Do your own testing !!!!                                               |
|      Unfortunately you need to use the default for GW and RPA calculations. |
|      (for HF NCORE is supported but not extensively tested yet)             |
|                                                                             |
 ----------------------------------------------------------------------------- 

 POTCAR:    PAW_PBE S 06Sep2000                   
   SHA256 =  0fc7481fb0695f01bdc6462160264c5c84044ae9ec85a907d398b887a2bc3132 S/
   COPYR  = (c) Copyright 06Sep2000 Georg Kresse                                
   COPYR  = This file is part of the software VASP. Any use, copying, and all ot
   COPYR  = If you do not have a valid VASP license, you may not use, copy or di
   VRHFIN =S : s2p4                                                             
   LEXCH  = PE                                                                  
   EATOM  =   276.8230 eV,   20.3459 Ry                                         
                                                                                
   TITEL  = PAW_PBE S 06Sep2000                                                 
   LULTRA =        F    use ultrasoft PP ?                                      
   IUNSCR =        1    unscreen: 0-lin 1-nonlin 2-no                           
   RPACOR =    1.500    partial core radius                                     
   POMASS =   32.066; ZVAL   =    6.000    mass and valenz                      
   RCORE  =    1.900    outmost cutoff radius                                   
   RWIGS  =    2.200; RWIGS  =    1.164    wigner-seitz radius (au A)           
   ENMAX  =  258.689; ENMIN  =  194.016 eV                                      
   ICORE  =        2    local potential                                         
   LCOR   =        T    correct aug charges                                     
   LPAW   =        T    paw PP                                                  
   EAUG   =  335.092                                                            
   DEXC   =    0.000                                                            
   RMAX   =    1.942    core radius for proj-oper                               
   RAUG   =    1.300    factor for augmentation sphere                          
   RDEP   =    1.954    radius for radial grids                                 
   RDEPT  =    1.744    core radius for aug-charge                              
                                                                                
   Atomic configuration                                                         
    6 entries                                                                   
     n  l   j            E        occ.                                          
     1  0  0.50     -2405.8406   2.0000                                         
     2  0  0.50      -211.7007   2.0000                                         
     2  1  1.50      -156.4958   6.0000                                         
     3  0  0.50       -17.2562   2.0000                                         
     3  1  0.50        -7.0085   4.0000                                         
     3  2  1.50        -6.8029   0.0000                                         
   Description                                                                  
     l       E           TYP  RCUT    TYP  RCUT                                 
     0    -17.2561641     23  1.900                                             
     0    -15.8743224     23  1.900                                             
     1     -7.0085400     23  1.900                                             
     1     -2.7779785     23  1.900                                             
     2     -6.8029130     23  1.900                                             
  local pseudopotential read in
  partial core-charges read in
  partial kinetic energy density read in
  atomic valenz-charges read in
  non local Contribution for L=           0  read in
    real space projection operators read in
  non local Contribution for L=           0  read in
    real space projection operators read in
  non local Contribution for L=           1  read in
    real space projection operators read in
  non local Contribution for L=           1  read in
    real space projection operators read in
    PAW grid and wavefunctions read in
 
   number of l-projection  operators is LMAX  =           4
   number of lm-projection operators is LMMAX =           8
 
 POTCAR:     PAW_PBE Cu_pv 06Sep2000              
   SHA256 =  cb7b504e2ea725fe1f25c85a9ac77d4012ce94cd394135b722c4e25ec297f1cb Cu
   COPYR  = (c) Copyright 06Sep2000 Georg Kresse                                
   COPYR  = This file is part of the software VASP. Any use, copying, and all ot
   COPYR  = If you do not have a valid VASP license, you may not use, copy or di
   VRHFIN =Cu: d10 p1                                                           
   LEXCH  = PE                                                                  
   EATOM  =  4120.1201 eV,  302.8203 Ry                                         
                                                                                
   TITEL  = PAW_PBE Cu_pv 06Sep2000                                             
   LULTRA =        F    use ultrasoft PP ?                                      
   IUNSCR =        1    unscreen: 0-lin 1-nonlin 2-no                           
   RPACOR =    1.500    partial core radius                                     
   POMASS =   63.546; ZVAL   =   17.000    mass and valenz                      
   RCORE  =    2.000    outmost cutoff radius                                   
   RWIGS  =    2.000; RWIGS  =    1.058    wigner-seitz radius (au A)           
   ENMAX  =  368.648; ENMIN  =  276.486 eV                                      
   RCLOC  =    1.304    cutoff for local pot                                    
   LCOR   =        T    correct aug charges                                     
   LPAW   =        T    paw PP                                                  
   EAUG   =  758.233                                                            
   DEXC   =    0.000                                                            
   RMAX   =    2.046    core radius for proj-oper                               
   RAUG   =    1.300    factor for augmentation sphere                          
   RDEP   =    2.025    radius for radial grids                                 
   RDEPT  =    1.558    core radius for aug-charge                              
                                                                                
   Atomic configuration                                                         
    8 entries                                                                   
     n  l   j            E        occ.                                          
     1  0  0.50     -8850.2467   2.0000                                         
     2  0  0.50     -1062.3498   2.0000                                         
     2  1  1.50      -916.8226   6.0000                                         
     3  0  0.50      -114.6929   2.0000                                         
     3  1  1.50       -72.1325   6.0000                                         
     3  2  2.50        -5.0394  10.0000                                         
     4  0  0.50        -4.6097   1.0000                                         
     4  3  2.50        -1.3606   0.0000                                         
   Description                                                                  
     l       E           TYP  RCUT    TYP  RCUT                                 
     1    -72.1324777     23  1.700                                             
     1     -1.3605826     23  1.700                                             
     2     -5.0393776     23  2.000                                             
     2     -6.3999602     23  2.000                                             
     0     -4.6097062     23  1.800                                             
     0     14.1620818     23  1.800                                             
  local pseudopotential read in
  partial core-charges read in
  partial kinetic energy density read in
  atomic valenz-charges read in
  non local Contribution for L=           1  read in
    real space projection operators read in
  non local Contribution for L=           1  read in
    real space projection operators read in
  non local Contribution for L=           2  read in
    real space projection operators read in
  non local Contribution for L=           2  read in
    real space projection operators read in
  non local Contribution for L=           0  read in
    real space projection operators read in
  non local Contribution for L=           0  read in
    real space projection operators read in
    PAW grid and wavefunctions read in
 
   number of l-projection  operators is LMAX  =           6
   number of lm-projection operators is LMMAX =          18
 
 POTCAR:     PAW_PBE Fe_pv 02Aug2007              
   SHA256 =  5d22e414b1f82158bf2c7ecb8b97b28fd0923e48cadc1c3bf74d524558f5dd32 Fe
   COPYR  = (c) Copyright 02Aug2007 Georg Kresse                                
   COPYR  = This file is part of the software VASP. Any use, copying, and all ot
   COPYR  = If you do not have a valid VASP license, you may not use, copy or di
   VRHFIN =Fe:  3pd7s1                                                          
   LEXCH  = PE                                                                  
   EATOM  =  2457.4239 eV,  180.6156 Ry                                         
                                                                                
   TITEL  = PAW_PBE Fe_pv 02Aug2007                                             
   LULTRA =        F    use ultrasoft PP ?                                      
   IUNSCR =        1    unscreen: 0-lin 1-nonlin 2-no                           
   RPACOR =    1.750    partial core radius                                     
   POMASS =   55.847; ZVAL   =   14.000    mass and valenz                      
   RCORE  =    2.200    outmost cutoff radius                                   
   RWIGS  =    2.200; RWIGS  =    1.164    wigner-seitz radius (au A)           
   ENMAX  =  293.238; ENMIN  =  219.928 eV                                      
   ICORE  =        3    local potential                                         
   LCOR   =        T    correct aug charges                                     
   LPAW   =        T    paw PP                                                  
   EAUG   =  578.342                                                            
   DEXC   =    0.000                                                            
   RMAX   =    2.249    core radius for proj-oper                               
   RAUG   =    1.300    factor for augmentation sphere                          
   RDEP   =    2.296    radius for radial grids                                 
   RDEPT  =    1.766    core radius for aug-charge                              
                                                                                
   Atomic configuration                                                         
    8 entries                                                                   
     n  l   j            E        occ.                                          
     1  0  0.50     -6993.8440   2.0000                                         
     2  0  0.50      -814.6047   2.0000                                         
     2  1  1.50      -693.3689   6.0000                                         
     3  0  0.50       -89.4732   2.0000                                         
     3  1  1.50       -55.6373   6.0000                                         
     3  2  2.50        -3.8151   7.0000                                         
     4  0  0.50        -4.2551   1.0000                                         
     4  3  2.50        -1.3606   0.0000                                         
   Description                                                                  
     l       E           TYP  RCUT    TYP  RCUT                                 
     1    -55.6372668     23  2.000                                             
     1     -5.4423304     23  2.000                                             
     2     -3.8151096     23  2.200                                             
     2     -5.1756922     23  2.200                                             
     0     -4.2550951     23  2.200                                             
     0     27.2116520     23  2.200                                             
     3     -1.3605826     23  2.200                                             
  local pseudopotential read in
  partial core-charges read in
  partial kinetic energy density read in
  atomic valenz-charges read in
  non local Contribution for L=           1  read in
    real space projection operators read in
  non local Contribution for L=           1  read in
    real space projection operators read in
  non local Contribution for L=           2  read in
    real space projection operators read in
  non local Contribution for L=           2  read in
    real space projection operators read in
  non local Contribution for L=           0  read in
    real space projection operators read in
  non local Contribution for L=           0  read in
    real space projection operators read in
    PAW grid and wavefunctions read in
 
   number of l-projection  operators is LMAX  =           6
   number of lm-projection operators is LMMAX =          18
 

 ----------------------------------------------------------------------------- 
|                                                                             |
|  ADVICE TO THIS USER RUNNING 'VASP/VAMP'   (HEAR YOUR MASTER'S VOICE ...):  |
|                                                                             |
|      You have a (more or less) 'large supercell' and for larger cells       |
|      it might be more efficient to use real space projection opertators     |
|      So try LREAL= Auto  in the INCAR   file.                               |
|      Mind:          For very  accurate calculation you might also keep the  |
|      reciprocal projection scheme          (i.e. LREAL=.FALSE.)             |
|                                                                             |
 ----------------------------------------------------------------------------- 


 ----------------------------------------------------------------------------- 
|                                                                             |
|  ADVICE TO THIS USER RUNNING 'VASP/VAMP'   (HEAR YOUR MASTER'S VOICE ...):  |
|                                                                             |
|      You enforced a specific xc-type in the INCAR file,                     |
|      a different type was found on the POTCAR file                          |
|          I HOPE YOU KNOW, WHAT YOU ARE  DOING                               |
|                                                                             |
 ----------------------------------------------------------------------------- 

  PAW_PBE S 06Sep2000                   :
 energy of atom  1       EATOM= -276.8230
 kinetic energy error for atom=    0.0007 (will be added to EATOM!!)
   PAW_PBE Cu_pv 06Sep2000              :
 energy of atom  2       EATOM=-4120.1201
 kinetic energy error for atom=    0.0094 (will be added to EATOM!!)
   PAW_PBE Fe_pv 02Aug2007              :
 energy of atom  3       EATOM=-2457.4239
 kinetic energy error for atom=    0.0025 (will be added to EATOM!!)
 
 
 POSCAR: Fe16 Cu16 S32                           
  positions in direct lattice
  No initial velocities read in
 exchange correlation table for  LEXCH =       14
   RHO(1)=    0.500       N(1)  =     2000
   RHO(2)=  100.500       N(2)  =     4000
 


--------------------------------------------------------------------------------------------------------


 ion  position               nearest neighbor table
   1  0.126  0.126  0.117-  37 2.25  61 2.27  41 2.29  49 2.30
   2  0.626  0.126  0.117-  38 2.25  62 2.27  42 2.29  50 2.30
   3  0.126  0.626  0.117-  39 2.25  63 2.27  43 2.29  51 2.30
   4  0.626  0.626  0.117-  40 2.25  64 2.27  44 2.29  52 2.30
   5  0.374  0.374  0.117-  39 2.25  62 2.27  41 2.29  52 2.30
   6  0.874  0.374  0.117-  40 2.25  61 2.27  42 2.29  51 2.30
   7  0.374  0.874  0.117-  37 2.25  64 2.27  43 2.29  50 2.30
   8  0.874  0.874  0.117-  38 2.25  63 2.27  44 2.29  49 2.30
   9  0.124  0.374  0.867-  41 2.25  51 2.27  45 2.29  55 2.30
  10  0.624  0.374  0.867-  42 2.25  52 2.27  46 2.29  56 2.30
  11  0.124  0.874  0.867-  43 2.25  49 2.27  47 2.29  53 2.30
  12  0.624  0.874  0.867-  44 2.25  50 2.27  48 2.29  54 2.30
  13  0.376  0.126  0.867-  41 2.25  50 2.27  46 2.29  53 2.30
  14  0.876  0.126  0.867-  42 2.25  49 2.27  45 2.29  54 2.30
  15  0.376  0.626  0.867-  43 2.25  52 2.27  48 2.29  55 2.30
  16  0.876  0.626  0.867-  44 2.25  51 2.27  47 2.29  56 2.30
  17  0.124  0.124  0.617-  45 2.25  53 2.27  33 2.29  57 2.30
  18  0.624  0.124  0.617-  46 2.25  54 2.27  34 2.29  58 2.30
  19  0.124  0.624  0.617-  47 2.25  55 2.27  35 2.29  59 2.30
  20  0.624  0.624  0.617-  48 2.25  56 2.27  36 2.29  60 2.30
  21  0.376  0.376  0.617-  46 2.25  55 2.27  36 2.29  57 2.30
  22  0.876  0.376  0.617-  45 2.25  56 2.27  35 2.29  58 2.30
  23  0.376  0.876  0.617-  48 2.25  53 2.27  34 2.29  59 2.30
  24  0.876  0.876  0.617-  47 2.25  54 2.27  33 2.29  60 2.30
  25  0.374  0.124  0.367-  34 2.25  57 2.27  37 2.29  62 2.30
  26  0.874  0.124  0.367-  33 2.25  58 2.27  38 2.29  61 2.30
  27  0.374  0.624  0.367-  36 2.25  59 2.27  39 2.29  64 2.30
  28  0.874  0.624  0.367-  35 2.25  60 2.27  40 2.29  63 2.30
  29  0.126  0.376  0.367-  35 2.25  57 2.27  39 2.29  61 2.30
  30  0.626  0.376  0.367-  36 2.25  58 2.27  40 2.29  62 2.30
  31  0.126  0.876  0.367-  33 2.25  59 2.27  37 2.29  63 2.30
  32  0.626  0.876  0.367-  34 2.25  60 2.27  38 2.29  64 2.30
  33  0.000  0.000  0.507-  26 2.25  31 2.25  17 2.29  24 2.29
  34  0.500  0.000  0.507-  25 2.25  32 2.25  18 2.29  23 2.29
  35  0.000  0.500  0.507-  28 2.25  29 2.25  19 2.29  22 2.29
  36  0.500  0.500  0.507-  27 2.25  30 2.25  20 2.29  21 2.29
  37  0.250  0.000  0.257-   1 2.25   7 2.25  25 2.29  31 2.29
  38  0.750  0.000  0.257-   2 2.25   8 2.25  26 2.29  32 2.29
  39  0.250  0.500  0.257-   3 2.25   5 2.25  27 2.29  29 2.29
  40  0.750  0.500  0.257-   4 2.25   6 2.25  28 2.29  30 2.29
  41  0.250  0.250  0.007-   9 2.25  13 2.25   1 2.29   5 2.29
  42  0.750  0.250  0.007-  10 2.25  14 2.25   2 2.29   6 2.29
  43  0.250  0.750  0.007-  11 2.25  15 2.25   3 2.29   7 2.29
  44  0.750  0.750  0.007-  12 2.25  16 2.25   4 2.29   8 2.29
  45  0.000  0.250  0.757-  17 2.25  22 2.25   9 2.29  14 2.29
  46  0.500  0.250  0.757-  18 2.25  21 2.25  10 2.29  13 2.29
  47  0.000  0.750  0.757-  19 2.25  24 2.25  11 2.29  16 2.29
  48  0.500  0.750  0.757-  20 2.25  23 2.25  12 2.29  15 2.29
  49  0.000  0.000  0.010-  11 2.27  14 2.27   1 2.30   8 2.30
  50  0.500  0.000  0.010-  12 2.27  13 2.27   2 2.30   7 2.30
  51  0.000  0.500  0.010-   9 2.27  16 2.27   3 2.30   6 2.30
  52  0.500  0.500  0.010-  10 2.27  15 2.27   4 2.30   5 2.30
  53  0.250  0.000  0.760-  17 2.27  23 2.27  11 2.30  13 2.30
  54  0.750  0.000  0.760-  18 2.27  24 2.27  12 2.30  14 2.30
  55  0.250  0.500  0.760-  19 2.27  21 2.27   9 2.30  15 2.30
  56  0.750  0.500  0.760-  20 2.27  22 2.27  10 2.30  16 2.30
  57  0.250  0.250  0.510-  25 2.27  29 2.27  17 2.30  21 2.30
  58  0.750  0.250  0.510-  26 2.27  30 2.27  18 2.30  22 2.30
  59  0.250  0.750  0.510-  27 2.27  31 2.27  19 2.30  23 2.30
  60  0.750  0.750  0.510-  28 2.27  32 2.27  20 2.30  24 2.30
  61  0.000  0.250  0.260-   1 2.27   6 2.27  26 2.30  29 2.30
  62  0.500  0.250  0.260-   2 2.27   5 2.27  25 2.30  30 2.30
  63  0.000  0.750  0.260-   3 2.27   8 2.27  28 2.30  31 2.30
  64  0.500  0.750  0.260-   4 2.27   7 2.27  27 2.30  32 2.30
 
  LATTYP: Found a base centered orthorhombic cell.
 ALAT       =    13.6542998270
 B/A-ratio  =     1.1708685446
 C/A-ratio  =     0.7651742771
  
  Lattice vectors:
  
 A1 = (  10.4799200000,   0.8248720000,   0.0000000000)
 A2 = (  -0.8248720000, -10.4799200000,   0.0000000000)
 A3 = (   0.0000000000,   0.0000000000, -10.4479190000)


Analysis of symmetry for initial positions (statically):
=====================================================================
 Subroutine PRICEL returns following result:
 
  LATTYP: Found a face centered orthorhombic cell.
 ALAT       =     6.8271499135
 B/A-ratio  =     1.1708685446
 C/A-ratio  =     1.5303485543
  
  Lattice vectors:
  
 A1 = (  -2.8261980000,  -2.8261980000,   5.2239595000)
 A2 = (  -2.4137620000,   2.4137620000,   5.2239595000)
 A3 = (  -5.2399600000,  -0.4124360000,   0.0000000000)
 
   8 primitive cells build up your supercell.
 

 Routine SETGRP: Setting up the symmetry group for a 
 base centered orthorhombic supercell.


 Subroutine GETGRP returns: Found  4 space group operations
 (whereof  2 operations were pure point group operations)
 out of a pool of  8 trial point group operations.


The static configuration has the point symmetry C_2 .
 The point group associated with its full space group is C_2v.


Analysis of symmetry for dynamics (positions and initial velocities):
=====================================================================
 Subroutine PRICEL returns following result:
 
  LATTYP: Found a face centered orthorhombic cell.
 ALAT       =     6.8271499135
 B/A-ratio  =     1.1708685446
 C/A-ratio  =     1.5303485543
  
  Lattice vectors:
  
 A1 = (  -2.8261980000,  -2.8261980000,   5.2239595000)
 A2 = (  -2.4137620000,   2.4137620000,   5.2239595000)
 A3 = (  -5.2399600000,  -0.4124360000,   0.0000000000)
 
   8 primitive cells build up your supercell.
 

 Routine SETGRP: Setting up the symmetry group for a 
 base centered orthorhombic supercell.


 Subroutine GETGRP returns: Found  4 space group operations
 (whereof  2 operations were pure point group operations)
 out of a pool of  8 trial point group operations.


The dynamic configuration has the point symmetry C_2 .
 The point group associated with its full space group is C_2v.


Analysis of structural, dynamic, and magnetic symmetry:
=====================================================================
 Subroutine PRICEL returns following result:
 
  LATTYP: Found a face centered orthorhombic cell.
 ALAT       =     6.8271499135
 B/A-ratio  =     1.1708685446
 C/A-ratio  =     1.5303485543
  
  Lattice vectors:
  
 A1 = (  -2.8261980000,  -2.8261980000,   5.2239595000)
 A2 = (  -2.4137620000,   2.4137620000,   5.2239595000)
 A3 = (  -5.2399600000,  -0.4124360000,   0.0000000000)
 
   8 primitive cells build up your supercell.
 

 Routine SETGRP: Setting up the symmetry group for a 
 base centered orthorhombic supercell.


 Subroutine GETGRP returns: Found  4 space group operations
 (whereof  2 operations were pure point group operations)
 out of a pool of  8 trial point group operations.


The magnetic configuration has the point symmetry C_2 .
 The point group associated with its full space group is C_2v.


 Subroutine INISYM returns: Found  4 space group operations
 (whereof  2 operations are pure point group operations),
 and found     8 'primitive' translations

 
 
 KPOINTS: Automatic mesh                          

Automatic generation of k-mesh.
Space group operators:
 irot       det(A)        alpha          n_x          n_y          n_z        tau_x        tau_y        tau_z
    1     1.000000     0.000000     1.000000     0.000000     0.000000     0.000000     0.000000     0.000000
    2     1.000000   180.000000     0.000000     0.000000     1.000000     0.000000     0.000000     0.000000
    3    -1.000000   180.000000     0.707107     0.707107     0.000000    -0.750000     0.000000     0.750000
    4    -1.000000   180.000000     0.707107    -0.707107     0.000000    -0.750000     0.000000     0.750000
 
 Subroutine IBZKPT returns following result:
 ===========================================
 
 Found      6 irreducible k-points:
 
 Following reciprocal coordinates:
            Coordinates               Weight
  0.000000  0.000000  0.000000      1.000000
  0.500000 -0.000000  0.000000      2.000000
  0.500000  0.500000  0.000000      1.000000
  0.000000  0.000000  0.500000      1.000000
  0.500000 -0.000000  0.500000      2.000000
  0.500000  0.500000  0.500000      1.000000
 
 Following cartesian coordinates:
            Coordinates               Weight
  0.000000  0.000000  0.000000      1.000000
  0.048008 -0.003779  0.000000      2.000000
  0.044229  0.044229  0.000000      1.000000
  0.000000  0.000000  0.047856      1.000000
  0.048008 -0.003779  0.047856      2.000000
  0.044229  0.044229  0.047856      1.000000
 
 TETIRR: Found     12 inequivalent tetrahedra from       48
 
 Subroutine IBZKPT_HF returns following result:
 ==============================================
 
 Found      8 k-points in 1st BZ
 the following      8 k-points will be used (e.g. in the exchange kernel)
 Following reciprocal coordinates:   # in IRBZ
  0.000000  0.000000  0.000000    0.12500000   1 t-inv F
  0.500000 -0.000000  0.000000    0.12500000   2 t-inv F
  0.500000  0.500000  0.000000    0.12500000   3 t-inv F
  0.000000  0.000000  0.500000    0.12500000   4 t-inv F
  0.500000 -0.000000  0.500000    0.12500000   5 t-inv F
  0.500000  0.500000  0.500000    0.12500000   6 t-inv F
  0.000000 -0.500000  0.000000    0.12500000   2 t-inv F spinflp
  0.000000 -0.500000  0.500000    0.12500000   5 t-inv F spinflp


--------------------------------------------------------------------------------------------------------




 Dimension of arrays:
   k-points           NKPTS =      6   k-points in BZ     NKDIM =      6   number of bands    NBANDS=    512
   number of dos      NEDOS =    301   number of ions     NIONS =     64
   non local maximal  LDIM  =      6   non local SUM 2l+1 LMDIM =     18
   total plane-waves  NPLWV = 829440
   max r-space proj   IRMAX =      1   max aug-charges    IRDMAX=  23112
   dimension x,y,z NGX =    96 NGY =   96 NGZ =   90
   dimension x,y,z NGXF=   192 NGYF=  192 NGZF=  180
   support grid    NGXF=   192 NGYF=  192 NGZF=  180
   ions per type =              32  16  16
   NGX,Y,Z   is equivalent  to a cutoff of  15.18, 15.18, 14.32 a.u.
   NGXF,Y,Z  is equivalent  to a cutoff of  30.36, 30.36, 28.64 a.u.

 SYSTEM =  CuFeS2                                  
 POSCAR =  Fe16 Cu16 S32                           

 Startparameter for this run:
   NWRITE =      2    write-flag & timer
   PREC   = accura    normal or accurate (medium, high low for compatibility)
   ISTART =      0    job   : 0-new  1-cont  2-samecut
   ICHARG =      1    charge: 1-file 2-atom 10-const
   ISPIN  =      2    spin polarized calculation?
   LNONCOLLINEAR =      F non collinear calculations
   LSORBIT =      F    spin-orbit coupling
   INIWAV =      1    electr: 0-lowe 1-rand  2-diag
   LASPH  =      F    aspherical Exc in radial PAW
   METAGGA=      F    non-selfconsistent MetaGGA calc.

 Electronic Relaxation 1
   ENCUT  =  700.0 eV  51.45 Ry    7.17 a.u.  22.68 22.68 22.54*2*pi/ulx,y,z
   ENINI  =  700.0     initial cutoff
   ENAUG  =  758.2 eV  augmentation charge cutoff
   NELM   =    500;   NELMIN=  2; NELMDL=  0     # of ELM steps 
   EDIFF  = 0.1E-07   stopping-criterion for ELM
   LREAL  =      F    real-space projection
   NLSPLINE    = F    spline interpolate recip. space projectors
   LCOMPAT=      F    compatible to vasp.4.4
   GGA_COMPAT  = T    GGA compatible to vasp.4.4-vasp.4.6
   LMAXPAW     = -100 max onsite density
   LMAXMIX     =    4 max onsite mixed and CHGCAR
   VOSKOWN=      0    Vosko Wilk Nusair interpolation
   ROPT   =    0.00000   0.00000   0.00000
 Ionic relaxation
   EDIFFG = -.1E-04   stopping-criterion for IOM
   NSW    =      0    number of steps for IOM
   NBLOCK =      1;   KBLOCK =      1    inner block; outer block 
   IBRION =     -1    ionic relax: 0-MD 1-quasi-New 2-CG
   NFREE  =      0    steps in history (QN), initial steepest desc. (CG)
   ISIF   =      2    stress and relaxation
   IWAVPR =     10    prediction:  0-non 1-charg 2-wave 3-comb
   ISYM   =      2    0-nonsym 1-usesym 2-fastsym
   LCORR  =      T    Harris-Foulkes like correction to forces

   POTIM  = 0.5000    time-step for ionic-motion
   TEIN   =    0.0    initial temperature
   TEBEG  =    0.0;   TEEND  =   0.0 temperature during run
   SMASS  =  -3.00    Nose mass-parameter (am)
   estimated Nose-frequenzy (Omega)   =  0.10E-29 period in steps =****** mass=  -0.253E-26a.u.
   SCALEE = 1.0000    scale energy and forces
   NPACO  =    256;   APACO  = 16.0  distance and # of slots for P.C.
   PSTRESS=    0.0 pullay stress

  Mass of Ions in am
   POMASS =  32.07 63.55 55.85
  Ionic Valenz
   ZVAL   =   6.00 17.00 14.00
  Atomic Wigner-Seitz radii
   RWIGS  =  -1.00 -1.00 -1.00
  virtual crystal weights 
   VCA    =   1.00  1.00  1.00
   NELECT =     688.0000    total number of electrons
   NUPDOWN=      -1.0000    fix difference up-down

 DOS related values:
   EMIN   =  10.00;   EMAX   =-10.00  energy-range for DOS
   EFERMI =   0.00
   ISMEAR =    -5;   SIGMA  =   0.03  broadening in eV -4-tet -1-fermi 0-gaus

 Electronic relaxation 2 (details)
   IALGO  =     38    algorithm
   LDIAG  =      T    sub-space diagonalisation (order eigenvalues)
   LSUBROT=      F    optimize rotation matrix (better conditioning)
   TURBO    =      0    0=normal 1=particle mesh
   IRESTART =      0    0=no restart 2=restart with 2 vectors
   NREBOOT  =      0    no. of reboots
   NMIN     =      0    reboot dimension
   EREF     =   0.00    reference energy to select bands
   IMIX   =      4    mixing-type and parameters
     AMIX     =   0.40;   BMIX     =  1.00
     AMIX_MAG =   1.60;   BMIX_MAG =  1.00
     AMIN     =   0.10
     WC   =   100.;   INIMIX=   1;  MIXPRE=   1;  MAXMIX= -45

 Intra band minimization:
   WEIMIN = 0.0000     energy-eigenvalue tresh-hold
   EBREAK =  0.49E-11  absolut break condition
   DEPER  =   0.30     relativ break condition  

   TIME   =   0.40     timestep for ELM

  volume/ion in A,a.u.               =      17.82       120.24
  Fermi-wavevector in a.u.,A,eV,Ry     =   1.383318  2.614092 26.035684  1.913569
  Thomas-Fermi vector in A             =   2.507927
 
 Write flags
   LWAVE        =      T    write WAVECAR
   LDOWNSAMPLE  =      F    k-point downsampling of WAVECAR
   LCHARG       =      T    write CHGCAR
   LVTOT        =      F    write LOCPOT, total local potential
   LVHAR        =      F    write LOCPOT, Hartree potential only
   LELF         =      F    write electronic localiz. function (ELF)
   LORBIT       =     11    0 simple, 1 ext, 2 COOP (PROOUT), +10 PAW based schemes


 Dipole corrections
   LMONO  =      F    monopole corrections only (constant potential shift)
   LDIPOL =      F    correct potential (dipole corrections)
   IDIPOL =      0    1-x, 2-y, 3-z, 4-all directions 
   EPSILON=  1.0000000 bulk dielectric constant

 LDA+U is selected, type is set to LDAUTYPE =  2
   angular momentum for each species LDAUL =     2    2    2
   U (eV)           for each species LDAUU =   0.0  0.1  4.7
   J (eV)           for each species LDAUJ =   0.0  0.0  0.0
 Exchange correlation treatment:
   GGA     =    PS    GGA type
   LEXCH   =    14    internal setting for exchange type
   VOSKOWN=      0    Vosko Wilk Nusair interpolation
   LHFCALC =     F    Hartree Fock is set to
   LHFONE  =     F    Hartree Fock one center treatment
   AEXX    =    0.0000 exact exchange contribution

 Linear response parameters
   LEPSILON=     F    determine dielectric tensor
   LRPA    =     F    only Hartree local field effects (RPA)
   LNABLA  =     F    use nabla operator in PAW spheres
   LVEL    =     F    velocity operator in full k-point grid
   LINTERFAST=   F  fast interpolation
   KINTER  =     0    interpolate to denser k-point grid
   CSHIFT  =0.1000    complex shift for real part using Kramers Kronig
   OMEGAMAX=  -1.0    maximum frequency
   DEG_THRESHOLD= 0.2000000E-02 threshold for treating states as degnerate
   RTIME   =   -0.100 relaxation time in fs
  (WPLASMAI=    0.000 imaginary part of plasma frequency in eV, 0.658/RTIME)
   DFIELD  = 0.0000000 0.0000000 0.0000000 field for delta impulse in time
 
 Orbital magnetization related:
   ORBITALMAG=     F  switch on orbital magnetization
   LCHIMAG   =     F  perturbation theory with respect to B field
   DQ        =  0.001000  dq finite difference perturbation B field
   LLRAUG    =     F  two centre corrections for induced B field

 PEAD related settings:
   LPEAD      =     T    switch on PEAD
   IPEAD      =     4    finite difference order for dpsi/dk
   LCALCPOL   =     T    calculate macroscopic polarization
   LCALCEPS   =     F    calculate dielectric tensor
   EFIELD_PEAD=    0.0000    0.0000    0.0000
   SKIP_EDOTP =     F
   LRPA       =     F
   SKIP_SCF   =     F


--------------------------------------------------------------------------------------------------------


 Static calculation
 charge density and potential will be updated during run
 spin polarized calculation
 Variant of blocked Davidson
 Davidson routine will perform the subspace rotation
 perform sub-space diagonalisation
    after iterative eigenvector-optimisation
 modified Broyden-mixing scheme, WC =      100.0
 initial mixing is a Kerker type mixing with AMIX =  0.4000 and BMIX =      1.0000
 Hartree-type preconditioning will be used
 using additional bands          168
 reciprocal scheme for non local part
 use partial core corrections
 calculate Harris-corrections to forces 
   (improved forces if not selfconsistent)
 use gradient corrections 
 use of overlap-Matrix (Vanderbilt PP)
 Fermi weights with tetrahedron method with Bloechl corrections


--------------------------------------------------------------------------------------------------------


  energy-cutoff  :      700.00
  volume of cell :     1140.37
      direct lattice vectors                 reciprocal lattice vectors
    10.479920000  0.824872000  0.000000000     0.096015413 -0.007557350  0.000000000
     0.824872000 10.479920000  0.000000000    -0.007557350  0.096015413  0.000000000
     0.000000000  0.000000000 10.447919000     0.000000000  0.000000000  0.095712840

  length of vectors
    10.512332616 10.512332616 10.447919000     0.096312372  0.096312372  0.095712840


 
 k-points in units of 2pi/SCALE and weight: Automatic mesh                          
   0.00000000  0.00000000  0.00000000       0.125
   0.04800771 -0.00377868  0.00000000       0.250
   0.04422903  0.04422903  0.00000000       0.125
   0.00000000  0.00000000  0.04785642       0.125
   0.04800771 -0.00377868  0.04785642       0.250
   0.04422903  0.04422903  0.04785642       0.125
 
 k-points in reciprocal lattice and weights: Automatic mesh                          
   0.00000000  0.00000000  0.00000000       0.125
   0.50000000 -0.00000000  0.00000000       0.250
   0.50000000  0.50000000  0.00000000       0.125
   0.00000000  0.00000000  0.50000000       0.125
   0.50000000 -0.00000000  0.50000000       0.250
   0.50000000  0.50000000  0.50000000       0.125
 
 position of ions in fractional coordinates (direct lattice) 
   0.12599100  0.12587900  0.11651500
   0.62599100  0.12587900  0.11651500
   0.12599100  0.62587900  0.11651500
   0.62599100  0.62587900  0.11651500
   0.37400900  0.37412100  0.11651500
   0.87400900  0.37412100  0.11651500
   0.37400900  0.87412100  0.11651500
   0.87400900  0.87412100  0.11651500
   0.12412100  0.37400900  0.86651500
   0.62412100  0.37400900  0.86651500
   0.12412100  0.87400900  0.86651500
   0.62412100  0.87400900  0.86651500
   0.37587900  0.12599100  0.86651500
   0.87587900  0.12599100  0.86651500
   0.37587900  0.62599100  0.86651500
   0.87587900  0.62599100  0.86651500
   0.12400900  0.12412100  0.61651500
   0.62400900  0.12412100  0.61651500
   0.12400900  0.62412100  0.61651500
   0.62400900  0.62412100  0.61651500
   0.37599100  0.37587900  0.61651500
   0.87599100  0.37587900  0.61651500
   0.37599100  0.87587900  0.61651500
   0.87599100  0.87587900  0.61651500
   0.37412100  0.12400900  0.36651500
   0.87412100  0.12400900  0.36651500
   0.37412100  0.62400900  0.36651500
   0.87412100  0.62400900  0.36651500
   0.12587900  0.37599100  0.36651500
   0.62587900  0.37599100  0.36651500
   0.12587900  0.87599100  0.36651500
   0.62587900  0.87599100  0.36651500
   0.00000000  0.00000000  0.50733500
   0.50000000  0.00000000  0.50733500
   0.00000000  0.50000000  0.50733500
   0.50000000  0.50000000  0.50733500
   0.25000000  0.00000000  0.25733500
   0.75000000  0.00000000  0.25733500
   0.25000000  0.50000000  0.25733500
   0.75000000  0.50000000  0.25733500
   0.25000000  0.25000000  0.00733500
   0.75000000  0.25000000  0.00733500
   0.25000000  0.75000000  0.00733500
   0.75000000  0.75000000  0.00733500
   0.00000000  0.25000000  0.75733500
   0.50000000  0.25000000  0.75733500
   0.00000000  0.75000000  0.75733500
   0.50000000  0.75000000  0.75733500
   0.00000000  0.00000000  0.00963600
   0.50000000  0.00000000  0.00963600
   0.00000000  0.50000000  0.00963600
   0.50000000  0.50000000  0.00963600
   0.25000000  0.00000000  0.75963600
   0.75000000  0.00000000  0.75963600
   0.25000000  0.50000000  0.75963600
   0.75000000  0.50000000  0.75963600
   0.25000000  0.25000000  0.50963600
   0.75000000  0.25000000  0.50963600
   0.25000000  0.75000000  0.50963600
   0.75000000  0.75000000  0.50963600
   0.00000000  0.25000000  0.25963600
   0.50000000  0.25000000  0.25963600
   0.00000000  0.75000000  0.25963600
   0.50000000  0.75000000  0.25963600
 
 position of ions in cartesian coordinates  (Angst):
   1.42420966  1.42312830  1.21733928
   6.66416966  1.83556430  1.21733928
   1.83664566  6.66308830  1.21733928
   7.07660566  7.07552430  1.21733928
   4.22818634  4.22926770  1.21733928
   9.46814634  4.64170370  1.21733928
   4.64062234  9.46922770  1.21733928
   9.88058234  9.88166370  1.21733928
   1.60928770  4.02196834  9.05327853
   6.84924770  4.43440434  9.05327853
   2.02172370  9.26192834  9.05327853
   7.26168370  9.67436434  9.05327853
   4.04310830  1.63042766  9.05327853
   9.28306830  2.04286366  9.05327853
   4.45554430  6.87038766  9.05327853
   9.69550430  7.28282366  9.05327853
   1.40198834  1.40306970  6.44129878
   6.64194834  1.81550570  6.44129878
   1.81442434  6.64302970  6.44129878
   7.05438434  7.05546570  6.44129878
   4.25040766  4.24932630  6.44129878
   9.49036766  4.66176230  6.44129878
   4.66284366  9.48928630  6.44129878
   9.90280366  9.90172230  6.44129878
   4.02304970  1.60820634  3.82931903
   9.26300970  2.02064234  3.82931903
   4.43548570  6.84816634  3.82931903
   9.67544570  7.26060234  3.82931903
   1.62934630  4.04418966  3.82931903
   6.86930630  4.45662566  3.82931903
   2.04178230  9.28414966  3.82931903
   7.28174230  9.69658566  3.82931903
   0.00000000  0.00000000  5.30059499
   5.23996000  0.41243600  5.30059499
   0.41243600  5.23996000  5.30059499
   5.65239600  5.65239600  5.30059499
   2.61998000  0.20621800  2.68861524
   7.85994000  0.61865400  2.68861524
   3.03241600  5.44617800  2.68861524
   8.27237600  5.85861400  2.68861524
   2.82619800  2.82619800  0.07663549
   8.06615800  3.23863400  0.07663549
   3.23863400  8.06615800  0.07663549
   8.47859400  8.47859400  0.07663549
   0.20621800  2.61998000  7.91257474
   5.44617800  3.03241600  7.91257474
   0.61865400  7.85994000  7.91257474
   5.85861400  8.27237600  7.91257474
   0.00000000  0.00000000  0.10067615
   5.23996000  0.41243600  0.10067615
   0.41243600  5.23996000  0.10067615
   5.65239600  5.65239600  0.10067615
   2.61998000  0.20621800  7.93661540
   7.85994000  0.61865400  7.93661540
   3.03241600  5.44617800  7.93661540
   8.27237600  5.85861400  7.93661540
   2.82619800  2.82619800  5.32463565
   8.06615800  3.23863400  5.32463565
   3.23863400  8.06615800  5.32463565
   8.47859400  8.47859400  5.32463565
   0.20621800  2.61998000  2.71265590
   5.44617800  3.03241600  2.71265590
   0.61865400  7.85994000  2.71265590
   5.85861400  8.27237600  2.71265590
 


--------------------------------------------------------------------------------------------------------


 k-point  1 :   0.0000 0.0000 0.0000  plane waves:   47999
 k-point  2 :   0.5000-0.0000 0.0000  plane waves:   47996
 k-point  3 :   0.5000 0.5000 0.0000  plane waves:   47908
 k-point  4 :   0.0000 0.0000 0.5000  plane waves:   47950
 k-point  5 :   0.5000-0.0000 0.5000  plane waves:   47868
 k-point  6 :   0.5000 0.5000 0.5000  plane waves:   47912

 maximum and minimum number of plane-waves per node :     47999    47868

 maximum number of plane-waves:     47999
 maximum index in each direction: 
   IXMAX=   22   IYMAX=   22   IZMAX=   22
   IXMIN=  -23   IYMIN=  -23   IZMIN=  -23


 serial   3D FFT for wavefunctions
 parallel 3D FFT for charge:
    minimum data exchange during FFTs selected (reduces bandwidth)


 total amount of memory used by VASP MPI-rank0   299201. kBytes
=======================================================================

   base      :      30000. kBytes
   nonl-proj :     174030. kBytes
   fftplans  :       4588. kBytes
   grid      :      69719. kBytes
   one-center:       1990. kBytes
   wavefun   :      18874. kBytes
 
     INWAV:  cpu time    0.0000: real time    0.0000
 Broyden mixing: mesh for mixing (old mesh)
   NGX = 45   NGY = 45   NGZ = 45
  (NGX  =192   NGY  =192   NGZ  =180)
  gives a total of  91125 points

 initial charge density was supplied:
 charge density of overlapping atoms calculated
 number of electron     688.0000000 magnetization       0.0000000
 keeping initial charge density in first step


--------------------------------------------------------------------------------------------------------


 Maximum index for augmentation-charges          895 (set IRDMAX)


--------------------------------------------------------------------------------------------------------


 First call to EWALD:  gamma=   0.170
 Maximum number of real-space cells 3x 3x 3
 Maximum number of reciprocal cells 3x 3x 3

    FEWALD:  cpu time    0.0021: real time    0.0022


--------------------------------------- Iteration      1(   1)  ---------------------------------------


    POTLOK:  cpu time    0.3451: real time    0.3964
    SETDIJ:  cpu time    0.0143: real time    0.0144
     EDDAV:  cpu time   63.1345: real time   63.7010
 BZINTS: Fermi energy: 16.922111;688.000000 electrons
         Band energy:***********;  BLOECHL correction: -0.010137
       DOS:  cpu time    0.0205: real time    0.0205
    --------------------------------------------
      LOOP:  cpu time   63.5144: real time   64.1324

 eigenvalue-minimisations  : 12288
 total energy-change (2. order) : 0.6188983E+04  (-0.5033376E+05)
 number of electron     688.0000000 magnetization       0.0000000
 augmentation part      688.0000000 magnetization       0.0000000

 Free energy of the ion-electron system (eV)
  ---------------------------------------------------
  alpha Z        PSCENC =      2377.42499063
  Ewald energy   TEWEN  =    -62761.94133316
  -Hartree energ DENC   =    -44124.31685336
  -exchange      EXHF   =         0.00000000
  -V(xc)+E(xc)   XCENC  =      3319.86515540
  PAW double counting   =     94592.23312189   -98164.79192727
  entropy T*S    EENTRO =         0.00000000
  eigenvalues    EBANDS =     -3069.55485051
  atomic energy  EATOM  =    114020.06510763
  Solvation  Ediel_sol  =         0.00000000
  ---------------------------------------------------
  free energy    TOTEN  =      6188.98341124 eV

  energy without entropy =     6188.98341124  energy(sigma->0) =     6188.98341124


--------------------------------------------------------------------------------------------------------




--------------------------------------- Iteration      1(   2)  ---------------------------------------


     EDDAV:  cpu time   68.6380: real time   69.1567
 BZINTS: Fermi energy:  6.762107;688.000000 electrons
         Band energy:***********;  BLOECHL correction:  0.000000
       DOS:  cpu time    0.0032: real time    0.0033
    --------------------------------------------
      LOOP:  cpu time   68.6412: real time   69.1599

 eigenvalue-minimisations  : 12800
 total energy-change (2. order) :-0.6276868E+04  (-0.6145106E+04)
 number of electron     688.0000000 magnetization       0.0000000
 augmentation part      688.0000000 magnetization       0.0000000

 Free energy of the ion-electron system (eV)
  ---------------------------------------------------
  alpha Z        PSCENC =      2377.42499063
  Ewald energy   TEWEN  =    -62761.94133316
  -Hartree energ DENC   =    -44124.31685336
  -exchange      EXHF   =         0.00000000
  -V(xc)+E(xc)   XCENC  =      3319.86515540
  PAW double counting   =     94592.23312189   -98164.79192727
  entropy T*S    EENTRO =         0.00000000
  eigenvalues    EBANDS =     -9346.42259942
  atomic energy  EATOM  =    114020.06510763
  Solvation  Ediel_sol  =         0.00000000
  ---------------------------------------------------
  free energy    TOTEN  =       -87.88433767 eV

  energy without entropy =      -87.88433767  energy(sigma->0) =      -87.88433767


--------------------------------------------------------------------------------------------------------




--------------------------------------- Iteration      1(   3)  ---------------------------------------


     EDDAV:  cpu time  124.3932: real time  125.2278
 BZINTS: Fermi energy:  6.297690;688.000000 electrons
         Band energy:***********;  BLOECHL correction:  0.000000
       DOS:  cpu time    0.0033: real time    0.0033
    --------------------------------------------
      LOOP:  cpu time  124.3965: real time  125.2311

 eigenvalue-minimisations  : 17408
 total energy-change (2. order) :-0.2823999E+03  (-0.2810976E+03)
 number of electron     688.0000000 magnetization       0.0000000
 augmentation part      688.0000000 magnetization       0.0000000

 Free energy of the ion-electron system (eV)
  ---------------------------------------------------
  alpha Z        PSCENC =      2377.42499063
  Ewald energy   TEWEN  =    -62761.94133316
  -Hartree energ DENC   =    -44124.31685336
  -exchange      EXHF   =         0.00000000
  -V(xc)+E(xc)   XCENC  =      3319.86515540
  PAW double counting   =     94592.23312189   -98164.79192727
  entropy T*S    EENTRO =         0.00000000
  eigenvalues    EBANDS =     -9628.82248139
  atomic energy  EATOM  =    114020.06510763
  Solvation  Ediel_sol  =         0.00000000
  ---------------------------------------------------
  free energy    TOTEN  =      -370.28421964 eV

  energy without entropy =     -370.28421964  energy(sigma->0) =     -370.28421964


--------------------------------------------------------------------------------------------------------




--------------------------------------- Iteration      1(   4)  ---------------------------------------


     EDDAV:  cpu time   76.9333: real time   77.4919
 BZINTS: Fermi energy:  6.269337;688.000000 electrons
         Band energy:***********;  BLOECHL correction:  0.000000
       DOS:  cpu time    0.0033: real time    0.0033
    --------------------------------------------
      LOOP:  cpu time   76.9366: real time   77.4953

 eigenvalue-minimisations  : 13312
 total energy-change (2. order) :-0.3980043E+01  (-0.3979718E+01)
 number of electron     688.0000000 magnetization       0.0000000
 augmentation part      688.0000000 magnetization       0.0000000

 Free energy of the ion-electron system (eV)
  ---------------------------------------------------
  alpha Z        PSCENC =      2377.42499063
  Ewald energy   TEWEN  =    -62761.94133316
  -Hartree energ DENC   =    -44124.31685336
  -exchange      EXHF   =         0.00000000
  -V(xc)+E(xc)   XCENC  =      3319.86515540
  PAW double counting   =     94592.23312189   -98164.79192727
  entropy T*S    EENTRO =         0.00000000
  eigenvalues    EBANDS =     -9632.80252476
  atomic energy  EATOM  =    114020.06510763
  Solvation  Ediel_sol  =         0.00000000
  ---------------------------------------------------
  free energy    TOTEN  =      -374.26426302 eV

  energy without entropy =     -374.26426302  energy(sigma->0) =     -374.26426302


--------------------------------------------------------------------------------------------------------




--------------------------------------- Iteration      1(   5)  ---------------------------------------


     EDDAV:  cpu time  127.7004: real time  128.5410
 BZINTS: Fermi energy:  6.243358;688.000000 electrons
         Band energy:***********;  BLOECHL correction:  0.000000
       DOS:  cpu time    0.0033: real time    0.0033
    CHARGE:  cpu time    1.4450: real time    1.4533
    MIXING:  cpu time    0.0027: real time    0.0028
    --------------------------------------------
      LOOP:  cpu time  129.1514: real time  130.0004

 eigenvalue-minimisations  : 17408
 total energy-change (2. order) :-0.1027139E+00  (-0.1027132E+00)
 number of electron     688.0000125 magnetization      -0.0000000
 augmentation part      260.9014272 magnetization      -0.0000000

 Broyden mixing:
  rms(total) = 0.75249E+01    rms(broyden)= 0.75249E+01
  rms(prec ) = 0.90352E+01
  weight for this iteration     100.00

 Free energy of the ion-electron system (eV)
  ---------------------------------------------------
  alpha Z        PSCENC =      2377.42499063
  Ewald energy   TEWEN  =    -62761.94133316
  -Hartree energ DENC   =    -44124.31685336
  -exchange      EXHF   =         0.00000000
  -V(xc)+E(xc)   XCENC  =      3319.86515540
  PAW double counting   =     94592.23312189   -98164.79192727
  entropy T*S    EENTRO =         0.00000000
  eigenvalues    EBANDS =     -9632.90523868
  atomic energy  EATOM  =    114020.06510763
  Solvation  Ediel_sol  =         0.00000000
  ---------------------------------------------------
  free energy    TOTEN  =      -374.36697693 eV

  energy without entropy =     -374.36697693  energy(sigma->0) =     -374.36697693


--------------------------------------------------------------------------------------------------------




--------------------------------------- Iteration      1(   6)  ---------------------------------------


    POTLOK:  cpu time    0.1515: real time    0.1550
    SETDIJ:  cpu time    0.0158: real time    0.0159
     EDDAV:  cpu time   66.0499: real time   66.5422
 BZINTS: Fermi energy:  4.476667;688.000000 electrons
         Band energy:***********;  BLOECHL correction:  0.000000
       DOS:  cpu time    0.0040: real time    0.0041
    CHARGE:  cpu time    1.1819: real time    1.1888
    MIXING:  cpu time    0.0026: real time    0.0720
    --------------------------------------------
      LOOP:  cpu time   67.4059: real time   67.9779

 eigenvalue-minimisations  : 12288
 total energy-change (2. order) : 0.4116142E+02  (-0.5985941E+02)
 number of electron     688.0000123 magnetization      -0.0000000
 augmentation part      297.2429495 magnetization      -0.0000000

 Broyden mixing:
  rms(total) = 0.10118E+02    rms(broyden)= 0.10118E+02
  rms(prec ) = 0.10632E+02
  weight for this iteration     100.00

 eigenvalues of (default mixing * dielectric matrix)
  average eigenvalue GAMMA=   0.1746
  0.1746

 Free energy of the ion-electron system (eV)
  ---------------------------------------------------
  alpha Z        PSCENC =      2377.42499063
  Ewald energy   TEWEN  =    -62761.94133316
  -Hartree energ DENC   =    -42153.62585169
  -exchange      EXHF   =         0.00000000
  -V(xc)+E(xc)   XCENC  =      3267.10862315
  PAW double counting   =     96353.21337225   -99710.15268242
  entropy T*S    EENTRO =         0.00000000
  eigenvalues    EBANDS =    -11725.29778492
  atomic energy  EATOM  =    114020.06510763
  Solvation  Ediel_sol  =         0.00000000
  ---------------------------------------------------
  free energy    TOTEN  =      -333.20555854 eV

  energy without entropy =     -333.20555854  energy(sigma->0) =     -333.20555854


--------------------------------------------------------------------------------------------------------




--------------------------------------- Iteration      1(   7)  ---------------------------------------


    POTLOK:  cpu time    0.1423: real time    0.1432
    SETDIJ:  cpu time    0.0130: real time    0.0131
     EDDAV:  cpu time   64.3388: real time   64.8274
 BZINTS: Fermi energy:  4.830697;688.000000 electrons
         Band energy:***********;  BLOECHL correction:  0.000000
       DOS:  cpu time    0.0028: real time    0.0028
    CHARGE:  cpu time    1.1809: real time    1.1883
    MIXING:  cpu time    0.0018: real time    0.0145
    --------------------------------------------
      LOOP:  cpu time   65.6796: real time   66.1892

 eigenvalue-minimisations  : 12288
 total energy-change (2. order) : 0.6147447E+01  (-0.1294120E+02)
 number of electron     688.0000128 magnetization      -0.0000000
 augmentation part      285.8670445 magnetization      -0.0000000

 Broyden mixing:
  rms(total) = 0.43828E+01    rms(broyden)= 0.43827E+01
  rms(prec ) = 0.44660E+01
  weight for this iteration     100.00

 eigenvalues of (default mixing * dielectric matrix)
  average eigenvalue GAMMA=   0.6137
  0.7758  0.4515

 Free energy of the ion-electron system (eV)
  ---------------------------------------------------
  alpha Z        PSCENC =      2377.42499063
  Ewald energy   TEWEN  =    -62761.94133316
  -Hartree energ DENC   =    -42660.35133235
  -exchange      EXHF   =         0.00000000
  -V(xc)+E(xc)   XCENC  =      3278.66468104
  PAW double counting   =     99793.28794720  -103309.84982574
  entropy T*S    EENTRO =         0.00000000
  eigenvalues    EBANDS =    -11064.35834712
  atomic energy  EATOM  =    114020.06510763
  Solvation  Ediel_sol  =         0.00000000
  ---------------------------------------------------
  free energy    TOTEN  =      -327.05811188 eV

  energy without entropy =     -327.05811188  energy(sigma->0) =     -327.05811188


--------------------------------------------------------------------------------------------------------




--------------------------------------- Iteration      1(   8)  ---------------------------------------


    POTLOK:  cpu time    0.1427: real time    0.1449
    SETDIJ:  cpu time    0.0130: real time    0.0131
     EDDAV:  cpu time   95.2636: real time   95.9244
 BZINTS: Fermi energy:  5.437358;688.000000 electrons
         Band energy:***********;  BLOECHL correction:  0.000000
       DOS:  cpu time    0.0040: real time    0.0040
    CHARGE:  cpu time    1.1801: real time    1.1878
    MIXING:  cpu time    0.0015: real time    0.0015
    --------------------------------------------
      LOOP:  cpu time   96.6050: real time   97.2757

 eigenvalue-minimisations  : 14848
 total energy-change (2. order) :-0.7406887E+00  (-0.4594707E+01)
 number of electron     688.0000123 magnetization      -0.0000000
 augmentation part      281.6364292 magnetization      -0.0000000

 Broyden mixing:
  rms(total) = 0.35181E+01    rms(broyden)= 0.35180E+01
  rms(prec ) = 0.38911E+01
  weight for this iteration     100.00

 eigenvalues of (default mixing * dielectric matrix)
  average eigenvalue GAMMA=   0.8228
  1.4285  0.6171  0.4229

 Free energy of the ion-electron system (eV)
  ---------------------------------------------------
  alpha Z        PSCENC =      2377.42499063
  Ewald energy   TEWEN  =    -62761.94133316
  -Hartree energ DENC   =    -42918.56977504
  -exchange      EXHF   =         0.00000000
  -V(xc)+E(xc)   XCENC  =      3291.55730092
  PAW double counting   =    105169.35327073  -108783.68609354
  entropy T*S    EENTRO =         0.00000000
  eigenvalues    EBANDS =    -10722.00226874
  atomic energy  EATOM  =    114020.06510763
  Solvation  Ediel_sol  =         0.00000000
  ---------------------------------------------------
  free energy    TOTEN  =      -327.79880058 eV

  energy without entropy =     -327.79880058  energy(sigma->0) =     -327.79880058


--------------------------------------------------------------------------------------------------------




--------------------------------------- Iteration      1(   9)  ---------------------------------------


    POTLOK:  cpu time    0.1433: real time    0.1447
    SETDIJ:  cpu time    0.0129: real time    0.0130
     EDDAV:  cpu time   87.5819: real time   88.2084
 BZINTS: Fermi energy:  4.852455;688.000000 electrons
         Band energy:***********;  BLOECHL correction:  0.000000
       DOS:  cpu time    0.0028: real time    0.0028
    CHARGE:  cpu time    1.1802: real time    1.1870
    MIXING:  cpu time    0.0019: real time    0.0019
    --------------------------------------------
      LOOP:  cpu time   88.9229: real time   89.5578

 eigenvalue-minimisations  : 14848
 total energy-change (2. order) :-0.1206206E+01  (-0.1244355E+02)
 number of electron     688.0000130 magnetization      -0.0000000
 augmentation part      282.2142855 magnetization      -0.0000000

 Broyden mixing:
  rms(total) = 0.23999E+01    rms(broyden)= 0.23998E+01
  rms(prec ) = 0.28502E+01
  weight for this iteration     100.00

 eigenvalues of (default mixing * dielectric matrix)
  average eigenvalue GAMMA=   0.9729
  2.3720  0.6560  0.5448  0.3187

 Free energy of the ion-electron system (eV)
  ---------------------------------------------------
  alpha Z        PSCENC =      2377.42499063
  Ewald energy   TEWEN  =    -62761.94133316
  -Hartree energ DENC   =    -42699.07318622
  -exchange      EXHF   =         0.00000000
  -V(xc)+E(xc)   XCENC  =      3283.79691408
  PAW double counting   =    109199.18342448  -112846.09598285
  entropy T*S    EENTRO =         0.00000000
  eigenvalues    EBANDS =    -10902.36494138
  atomic energy  EATOM  =    114020.06510763
  Solvation  Ediel_sol  =         0.00000000
  ---------------------------------------------------
  free energy    TOTEN  =      -329.00500679 eV

  energy without entropy =     -329.00500679  energy(sigma->0) =     -329.00500679


--------------------------------------------------------------------------------------------------------




--------------------------------------- Iteration      1(  10)  ---------------------------------------


    POTLOK:  cpu time    0.1430: real time    0.1439
    SETDIJ:  cpu time    0.0128: real time    0.0129
     EDDAV:  cpu time   95.5084: real time   96.1701
 BZINTS: Fermi energy:  5.222911;688.000000 electrons
         Band energy:***********;  BLOECHL correction:  0.000000
       DOS:  cpu time    0.0032: real time    0.0032
    CHARGE:  cpu time    1.1800: real time    1.1879
    MIXING:  cpu time    0.0019: real time    0.0127
    --------------------------------------------
      LOOP:  cpu time   96.8493: real time   97.5306

 eigenvalue-minimisations  : 15360
 total energy-change (2. order) : 0.3690425E+01  (-0.2029265E+01)
 number of electron     688.0000127 magnetization       0.0000000
 augmentation part      282.5204770 magnetization       0.0000000

 Broyden mixing:
  rms(total) = 0.29269E+00    rms(broyden)= 0.29265E+00
  rms(prec ) = 0.35187E+00
  weight for this iteration     100.00

 eigenvalues of (default mixing * dielectric matrix)
  average eigenvalue GAMMA=   0.9239
  2.3409  0.8013  0.5819  0.5819  0.3133

 Free energy of the ion-electron system (eV)
  ---------------------------------------------------
  alpha Z        PSCENC =      2377.42499063
  Ewald energy   TEWEN  =    -62761.94133316
  -Hartree energ DENC   =    -42723.83737341
  -exchange      EXHF   =         0.00000000
  -V(xc)+E(xc)   XCENC  =      3286.88152013
  PAW double counting   =    113012.00150266  -116707.12673821
  entropy T*S    EENTRO =         0.00000000
  eigenvalues    EBANDS =    -10828.78225780
  atomic energy  EATOM  =    114020.06510763
  Solvation  Ediel_sol  =         0.00000000
  ---------------------------------------------------
  free energy    TOTEN  =      -325.31458153 eV

  energy without entropy =     -325.31458153  energy(sigma->0) =     -325.31458153


--------------------------------------------------------------------------------------------------------




--------------------------------------- Iteration      1(  11)  ---------------------------------------


    POTLOK:  cpu time    0.1445: real time    0.1454
    SETDIJ:  cpu time    0.0130: real time    0.0131
     EDDAV:  cpu time  148.4973: real time  149.4708
 BZINTS: Fermi energy:  5.236312;688.000000 electrons
         Band energy:***********;  BLOECHL correction:  0.000000
       DOS:  cpu time    0.0032: real time    0.0032
    CHARGE:  cpu time    1.1829: real time    1.1902
    MIXING:  cpu time    0.0019: real time    0.0019
    --------------------------------------------
      LOOP:  cpu time  149.8427: real time  150.8246

 eigenvalue-minimisations  : 19968
 total energy-change (2. order) :-0.9693857E-01  (-0.1579859E+00)
 number of electron     688.0000127 magnetization       0.0000000
 augmentation part      282.4479510 magnetization       0.0000000

 Broyden mixing:
  rms(total) = 0.35625E+00    rms(broyden)= 0.35623E+00
  rms(prec ) = 0.38956E+00
  weight for this iteration     100.00

 eigenvalues of (default mixing * dielectric matrix)
  average eigenvalue GAMMA=   0.9010
  2.2292  0.9212  0.6885  0.6885  0.5553  0.3231

 Free energy of the ion-electron system (eV)
  ---------------------------------------------------
  alpha Z        PSCENC =      2377.42499063
  Ewald energy   TEWEN  =    -62761.94133316
  -Hartree energ DENC   =    -42746.84496866
  -exchange      EXHF   =         0.00000000
  -V(xc)+E(xc)   XCENC  =      3286.81566455
  PAW double counting   =    112817.29780902  -116512.53123118
  entropy T*S    EENTRO =         0.00000000
  eigenvalues    EBANDS =    -10805.69755892
  atomic energy  EATOM  =    114020.06510763
  Solvation  Ediel_sol  =         0.00000000
  ---------------------------------------------------
  free energy    TOTEN  =      -325.41152010 eV

  energy without entropy =     -325.41152010  energy(sigma->0) =     -325.41152010


--------------------------------------------------------------------------------------------------------




--------------------------------------- Iteration      1(  12)  ---------------------------------------


    POTLOK:  cpu time    0.1394: real time    0.1429
    SETDIJ:  cpu time    0.0130: real time    0.0131
     EDDAV:  cpu time   98.7355: real time   99.4151
 BZINTS: Fermi energy:  5.221459;688.000000 electrons
         Band energy:***********;  BLOECHL correction:  0.000000
       DOS:  cpu time    0.0032: real time    0.0032
    CHARGE:  cpu time    1.1790: real time    1.1866
    MIXING:  cpu time    0.0018: real time    0.0018
    --------------------------------------------
      LOOP:  cpu time  100.0718: real time  100.7627

 eigenvalue-minimisations  : 15360
 total energy-change (2. order) :-0.2416225E-02  (-0.4544817E-01)
 number of electron     688.0000127 magnetization       0.0000000
 augmentation part      282.2999386 magnetization       0.0000000

 Broyden mixing:
  rms(total) = 0.13539E+00    rms(broyden)= 0.13539E+00
  rms(prec ) = 0.14882E+00
  weight for this iteration     100.00

 eigenvalues of (default mixing * dielectric matrix)
  average eigenvalue GAMMA=   0.9537
  2.2540  1.1420  1.1420  0.3222  0.6282  0.6282  0.5595

 Free energy of the ion-electron system (eV)
  ---------------------------------------------------
  alpha Z        PSCENC =      2377.42499063
  Ewald energy   TEWEN  =    -62761.94133316
  -Hartree energ DENC   =    -42749.12568503
  -exchange      EXHF   =         0.00000000
  -V(xc)+E(xc)   XCENC  =      3286.30905920
  PAW double counting   =    112429.60937487  -116121.38308988
  entropy T*S    EENTRO =         0.00000000
  eigenvalues    EBANDS =    -10806.37236059
  atomic energy  EATOM  =    114020.06510763
  Solvation  Ediel_sol  =         0.00000000
  ---------------------------------------------------
  free energy    TOTEN  =      -325.41393633 eV

  energy without entropy =     -325.41393633  energy(sigma->0) =     -325.41393633


--------------------------------------------------------------------------------------------------------




--------------------------------------- Iteration      1(  13)  ---------------------------------------


    POTLOK:  cpu time    0.1387: real time    0.1424
    SETDIJ:  cpu time    0.0130: real time    0.0131
     EDDAV:  cpu time  107.1832: real time  107.9144
 BZINTS: Fermi energy:  5.222453;688.000000 electrons
         Band energy:***********;  BLOECHL correction:  0.000000
       DOS:  cpu time    0.0032: real time    0.0032
    CHARGE:  cpu time    1.1804: real time    1.1869
    MIXING:  cpu time    0.0019: real time    0.0019
    --------------------------------------------
      LOOP:  cpu time  108.5204: real time  109.2620

 eigenvalue-minimisations  : 15872
 total energy-change (2. order) :-0.1745238E-01  (-0.4513333E-02)
 number of electron     688.0000127 magnetization      -0.0000000
 augmentation part      282.3212266 magnetization      -0.0000000

 Broyden mixing:
  rms(total) = 0.91163E-01    rms(broyden)= 0.91161E-01
  rms(prec ) = 0.99212E-01
  weight for this iteration     100.00

 eigenvalues of (default mixing * dielectric matrix)
  average eigenvalue GAMMA=   1.1305
  2.5433  2.5433  0.9663  0.3221  0.7018  0.7018  0.7126  0.5532

 Free energy of the ion-electron system (eV)
  ---------------------------------------------------
  alpha Z        PSCENC =      2377.42499063
  Ewald energy   TEWEN  =    -62761.94133316
  -Hartree energ DENC   =    -42752.93054807
  -exchange      EXHF   =         0.00000000
  -V(xc)+E(xc)   XCENC  =      3286.35518278
  PAW double counting   =    112214.16227120  -115905.65043111
  entropy T*S    EENTRO =         0.00000000
  eigenvalues    EBANDS =    -10802.91662859
  atomic energy  EATOM  =    114020.06510763
  Solvation  Ediel_sol  =         0.00000000
  ---------------------------------------------------
  free energy    TOTEN  =      -325.43138870 eV

  energy without entropy =     -325.43138870  energy(sigma->0) =     -325.43138870


--------------------------------------------------------------------------------------------------------




--------------------------------------- Iteration      1(  14)  ---------------------------------------


    POTLOK:  cpu time    0.1432: real time    0.1441
    SETDIJ:  cpu time    0.0130: real time    0.0131
     EDDAV:  cpu time  105.6647: real time  106.3817
 BZINTS: Fermi energy:  5.226607;688.000000 electrons
         Band energy:***********;  BLOECHL correction:  0.000000
       DOS:  cpu time    0.0032: real time    0.0032
    CHARGE:  cpu time    1.4450: real time    1.4531
    MIXING:  cpu time    0.0024: real time    0.0024
    --------------------------------------------
      LOOP:  cpu time  107.2715: real time  107.9976

 eigenvalue-minimisations  : 15872
 total energy-change (2. order) :-0.1793443E-01  (-0.1296358E-01)
 number of electron     688.0000127 magnetization       0.0000000
 augmentation part      282.2926496 magnetization       0.0000000

 Broyden mixing:
  rms(total) = 0.50420E-01    rms(broyden)= 0.50409E-01
  rms(prec ) = 0.57038E-01
  weight for this iteration     100.00

 eigenvalues of (default mixing * dielectric matrix)
  average eigenvalue GAMMA=   1.0728
  2.4411  2.4411  0.9739  0.9739  0.3220  0.6605  0.6605  0.5563  0.6260

 Free energy of the ion-electron system (eV)
  ---------------------------------------------------
  alpha Z        PSCENC =      2377.42499063
  Ewald energy   TEWEN  =    -62761.94133316
  -Hartree energ DENC   =    -42763.27787465
  -exchange      EXHF   =         0.00000000
  -V(xc)+E(xc)   XCENC  =      3286.23444224
  PAW double counting   =    111948.21295504  -115638.54855701
  entropy T*S    EENTRO =         0.00000000
  eigenvalues    EBANDS =    -10793.61905385
  atomic energy  EATOM  =    114020.06510763
  Solvation  Ediel_sol  =         0.00000000
  ---------------------------------------------------
  free energy    TOTEN  =      -325.44932313 eV

  energy without entropy =     -325.44932313  energy(sigma->0) =     -325.44932313


--------------------------------------------------------------------------------------------------------




--------------------------------------- Iteration      1(  15)  ---------------------------------------


    POTLOK:  cpu time    0.1501: real time    0.1518
    SETDIJ:  cpu time    0.0143: real time    0.0144
     EDDAV:  cpu time  100.7716: real time  101.4707
 BZINTS: Fermi energy:  5.225891;688.000000 electrons
         Band energy:***********;  BLOECHL correction:  0.000000
       DOS:  cpu time    0.0032: real time    0.0032
    CHARGE:  cpu time    1.1830: real time    1.1901
    MIXING:  cpu time    0.0021: real time    0.0021
    --------------------------------------------
      LOOP:  cpu time  102.1244: real time  102.8322

 eigenvalue-minimisations  : 15104
 total energy-change (2. order) :-0.9686851E-03  (-0.9009456E-03)
 number of electron     688.0000127 magnetization       0.0000000
 augmentation part      282.2714810 magnetization       0.0000000

 Broyden mixing:
  rms(total) = 0.25061E-01    rms(broyden)= 0.25059E-01
  rms(prec ) = 0.28347E-01
  weight for this iteration     100.00

 eigenvalues of (default mixing * dielectric matrix)
  average eigenvalue GAMMA=   1.0487
  2.3735  2.3735  1.0871  1.0871  0.3220  0.6957  0.6957  0.5542  0.6490  0.6490

 Free energy of the ion-electron system (eV)
  ---------------------------------------------------
  alpha Z        PSCENC =      2377.42499063
  Ewald energy   TEWEN  =    -62761.94133316
  -Hartree energ DENC   =    -42763.85765523
  -exchange      EXHF   =         0.00000000
  -V(xc)+E(xc)   XCENC  =      3286.22425863
  PAW double counting   =    112026.71151499  -115717.41345284
  entropy T*S    EENTRO =         0.00000000
  eigenvalues    EBANDS =    -10792.66372248
  atomic energy  EATOM  =    114020.06510763
  Solvation  Ediel_sol  =         0.00000000
  ---------------------------------------------------
  free energy    TOTEN  =      -325.45029182 eV

  energy without entropy =     -325.45029182  energy(sigma->0) =     -325.45029182


--------------------------------------------------------------------------------------------------------




--------------------------------------- Iteration      1(  16)  ---------------------------------------


    POTLOK:  cpu time    0.1384: real time    0.1434
    SETDIJ:  cpu time    0.0129: real time    0.0130
     EDDAV:  cpu time  145.3818: real time  146.3211
 BZINTS: Fermi energy:  5.225903;688.000000 electrons
         Band energy:***********;  BLOECHL correction:  0.000000
       DOS:  cpu time    0.0032: real time    0.0032
    CHARGE:  cpu time    1.1805: real time    1.1881
    MIXING:  cpu time    0.0023: real time    0.0191
    --------------------------------------------
      LOOP:  cpu time  146.7192: real time  147.6880

 eigenvalue-minimisations  : 18432
 total energy-change (2. order) :-0.7291882E-03  (-0.1921081E-03)
 number of electron     688.0000127 magnetization       0.0000000
 augmentation part      282.2720790 magnetization       0.0000000

 Broyden mixing:
  rms(total) = 0.15879E-01    rms(broyden)= 0.15879E-01
  rms(prec ) = 0.16958E-01
  weight for this iteration     100.00

 eigenvalues of (default mixing * dielectric matrix)
  average eigenvalue GAMMA=   1.2288
  3.3579  2.2682  2.2682  1.0010  1.0010  0.3220  0.6863  0.6863  0.7618  0.5551
  0.6090

 Free energy of the ion-electron system (eV)
  ---------------------------------------------------
  alpha Z        PSCENC =      2377.42499063
  Ewald energy   TEWEN  =    -62761.94133316
  -Hartree energ DENC   =    -42764.01900806
  -exchange      EXHF   =         0.00000000
  -V(xc)+E(xc)   XCENC  =      3286.25602794
  PAW double counting   =    112051.81314296  -115742.54403575
  entropy T*S    EENTRO =         0.00000000
  eigenvalues    EBANDS =    -10792.50591319
  atomic energy  EATOM  =    114020.06510763
  Solvation  Ediel_sol  =         0.00000000
  ---------------------------------------------------
  free energy    TOTEN  =      -325.45102101 eV

  energy without entropy =     -325.45102101  energy(sigma->0) =     -325.45102101


--------------------------------------------------------------------------------------------------------




--------------------------------------- Iteration      1(  17)  ---------------------------------------


    POTLOK:  cpu time    0.1416: real time    0.1436
    SETDIJ:  cpu time    0.0130: real time    0.0130
     EDDAV:  cpu time   92.0910: real time   92.7411
 BZINTS: Fermi energy:  5.226658;688.000000 electrons
         Band energy:***********;  BLOECHL correction:  0.000000
       DOS:  cpu time    0.0032: real time    0.0032
    CHARGE:  cpu time    1.1805: real time    1.1880
    MIXING:  cpu time    0.0022: real time    0.0022
    --------------------------------------------
      LOOP:  cpu time   93.4314: real time   94.0911

 eigenvalue-minimisations  : 14592
 total energy-change (2. order) :-0.1263336E-02  (-0.7931564E-03)
 number of electron     688.0000128 magnetization       0.0000000
 augmentation part      282.2717811 magnetization       0.0000000

 Broyden mixing:
  rms(total) = 0.64244E-02    rms(broyden)= 0.64208E-02
  rms(prec ) = 0.68932E-02
  weight for this iteration     100.00

 eigenvalues of (default mixing * dielectric matrix)
  average eigenvalue GAMMA=   1.2271
  3.9097  2.1581  2.1581  1.1127  1.1127  0.3220  0.6686  0.6686  0.5560  0.7086
  0.7086  0.6422

 Free energy of the ion-electron system (eV)
  ---------------------------------------------------
  alpha Z        PSCENC =      2377.42499063
  Ewald energy   TEWEN  =    -62761.94133316
  -Hartree energ DENC   =    -42765.48692845
  -exchange      EXHF   =         0.00000000
  -V(xc)+E(xc)   XCENC  =      3286.31593574
  PAW double counting   =    112034.68882277  -115725.00610401
  entropy T*S    EENTRO =         0.00000000
  eigenvalues    EBANDS =    -10791.51277549
  atomic energy  EATOM  =    114020.06510763
  Solvation  Ediel_sol  =         0.00000000
  ---------------------------------------------------
  free energy    TOTEN  =      -325.45228434 eV

  energy without entropy =     -325.45228434  energy(sigma->0) =     -325.45228434


--------------------------------------------------------------------------------------------------------




--------------------------------------- Iteration      1(  18)  ---------------------------------------


    POTLOK:  cpu time    0.1431: real time    0.1439
    SETDIJ:  cpu time    0.0130: real time    0.0131
     EDDAV:  cpu time  118.7808: real time  119.5654
 BZINTS: Fermi energy:  5.226803;688.000000 electrons
         Band energy:***********;  BLOECHL correction:  0.000000
       DOS:  cpu time    0.0032: real time    0.0032
    CHARGE:  cpu time    1.1818: real time    1.1887
    MIXING:  cpu time    0.0024: real time    0.0024
    --------------------------------------------
      LOOP:  cpu time  120.1242: real time  120.9167

 eigenvalue-minimisations  : 16384
 total energy-change (2. order) :-0.7448191E-04  (-0.5262197E-04)
 number of electron     688.0000128 magnetization      -0.0000000
 augmentation part      282.2777716 magnetization      -0.0000000

 Broyden mixing:
  rms(total) = 0.71895E-02    rms(broyden)= 0.71891E-02
  rms(prec ) = 0.82234E-02
  weight for this iteration     100.00

 eigenvalues of (default mixing * dielectric matrix)
  average eigenvalue GAMMA=   1.1914
  4.0385  2.1199  2.1199  1.0948  1.0948  0.3220  0.7293  0.7293  0.7455  0.6783
  0.6783  0.5686  0.5686

 Free energy of the ion-electron system (eV)
  ---------------------------------------------------
  alpha Z        PSCENC =      2377.42499063
  Ewald energy   TEWEN  =    -62761.94133316
  -Hartree energ DENC   =    -42765.48059773
  -exchange      EXHF   =         0.00000000
  -V(xc)+E(xc)   XCENC  =      3286.32092473
  PAW double counting   =    112031.61374300  -115721.91561758
  entropy T*S    EENTRO =         0.00000000
  eigenvalues    EBANDS =    -10791.53957634
  atomic energy  EATOM  =    114020.06510763
  Solvation  Ediel_sol  =         0.00000000
  ---------------------------------------------------
  free energy    TOTEN  =      -325.45235883 eV

  energy without entropy =     -325.45235883  energy(sigma->0) =     -325.45235883


--------------------------------------------------------------------------------------------------------




--------------------------------------- Iteration      1(  19)  ---------------------------------------


    POTLOK:  cpu time    0.1412: real time    0.1421
    SETDIJ:  cpu time    0.0130: real time    0.0130
     EDDAV:  cpu time  132.0436: real time  132.9152
 BZINTS: Fermi energy:  5.226612;688.000000 electrons
         Band energy:***********;  BLOECHL correction:  0.000000
       DOS:  cpu time    0.0032: real time    0.0032
    CHARGE:  cpu time    1.1810: real time    1.1888
    MIXING:  cpu time    0.0023: real time    0.0023
    --------------------------------------------
      LOOP:  cpu time  133.3843: real time  134.2647

 eigenvalue-minimisations  : 17408
 total energy-change (2. order) : 0.2604967E-05  (-0.1165041E-04)
 number of electron     688.0000128 magnetization      -0.0000000
 augmentation part      282.2762339 magnetization      -0.0000000

 Broyden mixing:
  rms(total) = 0.37512E-02    rms(broyden)= 0.37511E-02
  rms(prec ) = 0.40765E-02
  weight for this iteration     100.00

 eigenvalues of (default mixing * dielectric matrix)
  average eigenvalue GAMMA=   1.2410
  4.1177  2.2167  2.2167  1.3486  1.3486  0.9756  0.9756  0.3220  0.6796  0.6796
[...]
   -.413E+02 0.144E+01 0.478E+02   0.421E+02 -.139E+01 -.482E+02   -.801E+00 -.466E-01 0.460E+00   0.184E-04 -.442E-06 0.298E-05
   -.413E+02 0.144E+01 0.478E+02   0.421E+02 -.139E+01 -.482E+02   -.801E+00 -.466E-01 0.460E+00   0.184E-04 -.442E-06 0.298E-05
   -.413E+02 0.144E+01 0.478E+02   0.421E+02 -.139E+01 -.482E+02   -.801E+00 -.466E-01 0.460E+00   0.184E-04 -.442E-06 0.298E-05
   -.413E+02 0.144E+01 0.478E+02   0.421E+02 -.139E+01 -.482E+02   -.801E+00 -.466E-01 0.460E+00   0.184E-04 -.442E-06 0.298E-05
   0.413E+02 -.144E+01 0.478E+02   -.421E+02 0.139E+01 -.482E+02   0.801E+00 0.466E-01 0.460E+00   -.184E-04 0.442E-06 0.298E-05
   0.413E+02 -.144E+01 0.478E+02   -.421E+02 0.139E+01 -.482E+02   0.801E+00 0.466E-01 0.460E+00   -.184E-04 0.442E-06 0.298E-05
   0.413E+02 -.144E+01 0.478E+02   -.421E+02 0.139E+01 -.482E+02   0.801E+00 0.466E-01 0.460E+00   -.184E-04 0.442E-06 0.298E-05
   0.413E+02 -.144E+01 0.478E+02   -.421E+02 0.139E+01 -.482E+02   0.801E+00 0.466E-01 0.460E+00   -.184E-04 0.442E-06 0.298E-05
   0.144E+01 -.413E+02 0.478E+02   -.139E+01 0.421E+02 -.482E+02   -.466E-01 -.801E+00 0.460E+00   -.442E-06 0.184E-04 0.298E-05
   0.144E+01 -.413E+02 0.478E+02   -.139E+01 0.421E+02 -.482E+02   -.466E-01 -.801E+00 0.460E+00   -.442E-06 0.184E-04 0.298E-05
   0.144E+01 -.413E+02 0.478E+02   -.139E+01 0.421E+02 -.482E+02   -.466E-01 -.801E+00 0.460E+00   -.442E-06 0.184E-04 0.298E-05
   0.144E+01 -.413E+02 0.478E+02   -.139E+01 0.421E+02 -.482E+02   -.466E-01 -.801E+00 0.460E+00   -.442E-06 0.184E-04 0.298E-05
   -.144E+01 0.413E+02 0.478E+02   0.139E+01 -.421E+02 -.482E+02   0.466E-01 0.801E+00 0.460E+00   0.442E-06 -.184E-04 0.298E-05
   -.144E+01 0.413E+02 0.478E+02   0.139E+01 -.421E+02 -.482E+02   0.466E-01 0.801E+00 0.460E+00   0.442E-06 -.184E-04 0.298E-05
   -.144E+01 0.413E+02 0.478E+02   0.139E+01 -.421E+02 -.482E+02   0.466E-01 0.801E+00 0.460E+00   0.442E-06 -.184E-04 0.298E-05
   -.144E+01 0.413E+02 0.478E+02   0.139E+01 -.421E+02 -.482E+02   0.466E-01 0.801E+00 0.460E+00   0.442E-06 -.184E-04 0.298E-05
   -.169E-06 -.715E-07 -.561E+02   -.284E-13 -.163E-12 0.539E+02   0.321E-25 0.388E-25 0.224E+01   0.229E-12 0.113E-12 0.259E-08
   -.169E-06 -.715E-07 -.561E+02   -.284E-13 -.171E-12 0.539E+02   0.225E-25 0.364E-25 0.224E+01   -.529E-12 0.129E-12 0.259E-08
   -.169E-06 -.715E-07 -.561E+02   -.284E-13 -.242E-12 0.539E+02   -.646E-26 -.646E-25 0.224E+01   0.419E-12 -.247E-12 0.259E-08
   -.169E-06 -.715E-07 -.561E+02   0.000E+00 -.256E-12 0.539E+02   -.166E-25 -.129E-25 0.224E+01   -.720E-12 -.155E-12 0.259E-08
   -.715E-07 -.169E-06 -.561E+02   0.171E-12 -.142E-12 0.539E+02   -.283E-25 -.258E-25 0.224E+01   -.580E-12 0.253E-12 0.259E-08
   -.715E-07 -.169E-06 -.561E+02   0.156E-12 -.156E-12 0.539E+02   -.174E-25 0.323E-25 0.224E+01   0.101E-12 0.230E-12 0.259E-08
   -.715E-07 -.169E-06 -.561E+02   0.142E-12 -.853E-13 0.539E+02   0.428E-25 -.129E-25 0.224E+01   -.513E-12 0.555E-13 0.259E-08
   -.715E-07 -.169E-06 -.561E+02   0.142E-12 -.142E-12 0.539E+02   -.349E-25 0.517E-25 0.224E+01   0.417E-13 -.563E-13 0.259E-08
   -.169E-06 -.716E-07 -.561E+02   -.114E-12 -.133E-12 0.539E+02   0.808E-26 0.258E-25 0.224E+01   -.676E-12 0.245E-13 0.258E-08
   -.169E-06 -.716E-07 -.561E+02   -.853E-13 -.906E-13 0.539E+02   0.126E-25 0.105E-25 0.224E+01   0.121E-12 -.132E-12 0.258E-08
   -.169E-06 -.715E-07 -.561E+02   -.853E-13 -.533E-13 0.539E+02   -.323E-26 0.000E+00 0.224E+01   -.606E-12 -.151E-13 0.258E-08
   -.169E-06 -.715E-07 -.561E+02   -.114E-12 -.888E-13 0.539E+02   0.368E-25 -.141E-25 0.224E+01   0.117E-12 0.725E-13 0.259E-08
   -.715E-07 -.169E-06 -.561E+02   0.905E-13 0.335E-13 0.539E+02   0.111E-25 0.129E-25 0.224E+01   0.262E-12 0.813E-14 0.259E-08
   -.715E-07 -.169E-06 -.561E+02   0.929E-13 0.333E-13 0.539E+02   -.182E-25 0.258E-25 0.224E+01   -.489E-12 -.574E-15 0.259E-08
   -.715E-07 -.169E-06 -.561E+02   0.831E-13 0.217E-13 0.539E+02   0.511E-25 -.210E-25 0.224E+01   0.262E-12 0.427E-13 0.259E-08
   -.715E-07 -.169E-06 -.561E+02   0.856E-13 0.358E-13 0.539E+02   -.267E-25 0.517E-25 0.224E+01   -.578E-12 0.111E-14 0.259E-08
   0.303E-07 -.248E-07 -.452E+02   0.746E-13 0.107E-13 0.426E+02   -.808E-27 0.129E-25 0.260E+01   0.210E-12 0.848E-13 0.542E-05
   0.303E-07 -.248E-07 -.452E+02   0.604E-13 0.142E-13 0.426E+02   -.103E-25 -.194E-25 0.260E+01   -.267E-12 0.759E-13 0.542E-05
   0.303E-07 -.248E-07 -.452E+02   0.142E-13 0.213E-13 0.426E+02   0.404E-26 -.258E-25 0.260E+01   0.324E-12 -.169E-12 0.542E-05
   0.303E-07 -.248E-07 -.452E+02   0.426E-13 0.284E-13 0.426E+02   0.226E-25 0.258E-25 0.260E+01   -.327E-12 -.123E-12 0.542E-05
   -.248E-07 0.303E-07 -.452E+02   0.142E-13 0.110E-12 0.426E+02   0.117E-25 -.186E-25 0.260E+01   -.409E-12 0.362E-13 0.542E-05
   -.248E-07 0.303E-07 -.452E+02   0.462E-13 0.533E-13 0.426E+02   0.137E-25 0.129E-25 0.260E+01   0.251E-12 0.445E-13 0.542E-05
   -.248E-07 0.303E-07 -.452E+02   0.107E-13 0.139E-12 0.426E+02   0.141E-25 0.162E-25 0.260E+01   -.357E-12 -.209E-12 0.542E-05
   -.248E-07 0.303E-07 -.452E+02   0.178E-13 0.139E-12 0.426E+02   -.145E-25 -.388E-25 0.260E+01   0.235E-12 -.262E-12 0.542E-05
   0.303E-07 -.248E-07 -.452E+02   0.320E-13 0.693E-13 0.426E+02   -.113E-25 0.452E-25 0.260E+01   -.325E-12 0.296E-13 0.542E-05
   0.303E-07 -.248E-07 -.452E+02   0.746E-13 0.497E-13 0.426E+02   0.368E-25 0.323E-25 0.260E+01   0.178E-12 -.171E-12 0.542E-05
   0.303E-07 -.248E-07 -.452E+02   0.142E-13 0.284E-13 0.426E+02   0.335E-25 -.388E-25 0.260E+01   -.272E-12 -.234E-13 0.542E-05
   0.303E-07 -.248E-07 -.452E+02   0.426E-13 0.622E-13 0.426E+02   -.267E-25 0.194E-25 0.260E+01   0.182E-12 0.882E-13 0.542E-05
   -.248E-07 0.303E-07 -.452E+02   -.315E-14 0.133E-12 0.426E+02   -.450E-25 -.295E-25 0.260E+01   0.352E-12 -.244E-12 0.542E-05
   -.248E-07 0.303E-07 -.452E+02   0.100E-14 0.157E-12 0.426E+02   -.545E-25 0.129E-25 0.260E+01   -.293E-12 -.187E-12 0.542E-05
   -.248E-07 0.303E-07 -.452E+02   -.485E-14 0.110E-12 0.426E+02   0.105E-25 -.194E-25 0.260E+01   0.326E-12 -.266E-13 0.542E-05
   -.248E-07 0.303E-07 -.452E+02   -.291E-13 0.155E-12 0.426E+02   -.590E-25 -.775E-25 0.260E+01   -.381E-12 -.172E-13 0.542E-05
 -----------------------------------------------------------------------------------------------
   -.195E-05 -.195E-05 -.922E+02   0.317E-13 0.754E-14 -.483E-12   0.763E-15 0.222E-15 0.922E+02   -.352E-11 -.191E-11 0.182E-03
 
 
 POSITION                                       TOTAL-FORCE (eV/Angst)
 -----------------------------------------------------------------------------------
      1.42421      1.42313      1.21734        -0.000774     -0.000529      0.000107
      6.66417      1.83556      1.21734        -0.000774     -0.000529      0.000107
      1.83665      6.66309      1.21734        -0.000774     -0.000529      0.000107
      7.07661      7.07552      1.21734        -0.000774     -0.000529      0.000107
      4.22819      4.22927      1.21734         0.000774      0.000529      0.000107
      9.46815      4.64170      1.21734         0.000774      0.000529      0.000107
      4.64062      9.46923      1.21734         0.000774      0.000529      0.000107
      9.88058      9.88166      1.21734         0.000774      0.000529      0.000107
      1.60929      4.02197      9.05328         0.000529      0.000774      0.000107
      6.84925      4.43440      9.05328         0.000529      0.000774      0.000107
      2.02172      9.26193      9.05328         0.000529      0.000774      0.000107
      7.26168      9.67436      9.05328         0.000529      0.000774      0.000107
      4.04311      1.63043      9.05328        -0.000529     -0.000774      0.000107
      9.28307      2.04286      9.05328        -0.000529     -0.000774      0.000107
      4.45554      6.87039      9.05328        -0.000529     -0.000774      0.000107
      9.69550      7.28282      9.05328        -0.000529     -0.000774      0.000107
      1.40199      1.40307      6.44130         0.000774      0.000529      0.000107
      6.64195      1.81551      6.44130         0.000774      0.000529      0.000107
      1.81442      6.64303      6.44130         0.000774      0.000529      0.000107
      7.05438      7.05547      6.44130         0.000774      0.000529      0.000107
      4.25041      4.24933      6.44130        -0.000774     -0.000529      0.000107
      9.49037      4.66176      6.44130        -0.000774     -0.000529      0.000107
      4.66284      9.48929      6.44130        -0.000774     -0.000529      0.000107
      9.90280      9.90172      6.44130        -0.000774     -0.000529      0.000107
      4.02305      1.60821      3.82932         0.000529      0.000774      0.000107
      9.26301      2.02064      3.82932         0.000529      0.000774      0.000107
      4.43549      6.84817      3.82932         0.000529      0.000774      0.000107
      9.67545      7.26060      3.82932         0.000529      0.000774      0.000107
      1.62935      4.04419      3.82932        -0.000529     -0.000774      0.000107
      6.86931      4.45663      3.82932        -0.000529     -0.000774      0.000107
      2.04178      9.28415      3.82932        -0.000529     -0.000774      0.000107
      7.28174      9.69659      3.82932        -0.000529     -0.000774      0.000107
      0.00000      0.00000      5.30059         0.000000     -0.000000     -0.000168
      5.23996      0.41244      5.30059         0.000000     -0.000000     -0.000168
      0.41244      5.23996      5.30059         0.000000     -0.000000     -0.000168
      5.65240      5.65240      5.30059         0.000000     -0.000000     -0.000168
      2.61998      0.20622      2.68862         0.000000     -0.000000     -0.000168
      7.85994      0.61865      2.68862         0.000000     -0.000000     -0.000168
      3.03242      5.44618      2.68862         0.000000     -0.000000     -0.000168
      8.27238      5.85861      2.68862         0.000000     -0.000000     -0.000168
      2.82620      2.82620      0.07664         0.000000     -0.000000     -0.000168
      8.06616      3.23863      0.07664         0.000000     -0.000000     -0.000168
      3.23863      8.06616      0.07664         0.000000     -0.000000     -0.000168
      8.47859      8.47859      0.07664         0.000000     -0.000000     -0.000168
      0.20622      2.61998      7.91257         0.000000     -0.000000     -0.000168
      5.44618      3.03242      7.91257         0.000000     -0.000000     -0.000168
      0.61865      7.85994      7.91257         0.000000     -0.000000     -0.000168
      5.85861      8.27238      7.91257         0.000000     -0.000000     -0.000168
      0.00000      0.00000      0.10068         0.000000     -0.000000     -0.000045
      5.23996      0.41244      0.10068         0.000000     -0.000000     -0.000045
      0.41244      5.23996      0.10068         0.000000     -0.000000     -0.000045
      5.65240      5.65240      0.10068         0.000000     -0.000000     -0.000045
      2.61998      0.20622      7.93662         0.000000     -0.000000     -0.000045
      7.85994      0.61865      7.93662         0.000000     -0.000000     -0.000045
      3.03242      5.44618      7.93662         0.000000     -0.000000     -0.000045
      8.27238      5.85861      7.93662         0.000000     -0.000000     -0.000045
      2.82620      2.82620      5.32464         0.000000     -0.000000     -0.000045
      8.06616      3.23863      5.32464         0.000000     -0.000000     -0.000045
      3.23863      8.06616      5.32464         0.000000     -0.000000     -0.000045
      8.47859      8.47859      5.32464         0.000000     -0.000000     -0.000045
      0.20622      2.61998      2.71266         0.000000     -0.000000     -0.000045
      5.44618      3.03242      2.71266         0.000000     -0.000000     -0.000045
      0.61865      7.85994      2.71266         0.000000     -0.000000     -0.000045
      5.85861      8.27238      2.71266         0.000000     -0.000000     -0.000045
 -----------------------------------------------------------------------------------
    total drift:                               -0.000002     -0.000002     -0.034765


--------------------------------------------------------------------------------------------------------



  FREE ENERGIE OF THE ION-ELECTRON SYSTEM (eV)
  ---------------------------------------------------
  free  energy   TOTEN  =      -325.45236322 eV

  energy  without entropy=     -325.45236322  energy(sigma->0) =     -325.45236322
 


--------------------------------------------------------------------------------------------------------


    POTLOK:  cpu time    0.1547: real time    0.1554


--------------------------------------------------------------------------------------------------------


 writing wavefunctions
     LOOP+:  cpu time 3108.2427: real time 3129.9042
    4ORBIT:  cpu time    0.0000: real time    0.0000
 


 total charge     
 
# of ion       s       p       d       tot
------------------------------------------
    1        1.316   2.402   0.000   3.718
    2        1.316   2.402   0.000   3.718
    3        1.316   2.402   0.000   3.718
    4        1.316   2.402   0.000   3.718
    5        1.316   2.402   0.000   3.718
    6        1.316   2.402   0.000   3.718
    7        1.316   2.402   0.000   3.718
    8        1.316   2.402   0.000   3.718
    9        1.316   2.402   0.000   3.718
   10        1.316   2.402   0.000   3.718
   11        1.316   2.402   0.000   3.718
   12        1.316   2.402   0.000   3.718
   13        1.316   2.402   0.000   3.718
   14        1.316   2.402   0.000   3.718
   15        1.316   2.402   0.000   3.718
   16        1.316   2.402   0.000   3.718
   17        1.316   2.402   0.000   3.718
   18        1.316   2.402   0.000   3.718
   19        1.316   2.402   0.000   3.718
   20        1.316   2.402   0.000   3.718
   21        1.316   2.402   0.000   3.718
   22        1.316   2.402   0.000   3.718
   23        1.316   2.402   0.000   3.718
   24        1.316   2.402   0.000   3.718
   25        1.316   2.402   0.000   3.718
   26        1.316   2.402   0.000   3.718
   27        1.316   2.402   0.000   3.718
   28        1.316   2.402   0.000   3.718
   29        1.316   2.402   0.000   3.718
   30        1.316   2.402   0.000   3.718
   31        1.316   2.402   0.000   3.718
   32        1.316   2.402   0.000   3.718
   33        0.257   6.199   8.916  15.372
   34        0.257   6.199   8.916  15.372
   35        0.257   6.199   8.916  15.372
   36        0.257   6.199   8.916  15.372
   37        0.257   6.199   8.917  15.373
   38        0.257   6.199   8.917  15.373
   39        0.257   6.199   8.917  15.373
   40        0.257   6.199   8.917  15.373
   41        0.257   6.199   8.916  15.372
   42        0.257   6.199   8.916  15.372
   43        0.257   6.199   8.916  15.372
   44        0.257   6.199   8.916  15.372
   45        0.257   6.199   8.917  15.373
   46        0.257   6.199   8.917  15.373
   47        0.257   6.199   8.917  15.373
   48        0.257   6.199   8.917  15.373
   49        0.343   6.341   5.825  12.509
   50        0.343   6.341   5.825  12.509
   51        0.343   6.341   5.825  12.509
   52        0.343   6.341   5.825  12.509
   53        0.343   6.341   5.825  12.510
   54        0.343   6.341   5.825  12.510
   55        0.343   6.341   5.825  12.510
   56        0.343   6.341   5.825  12.510
   57        0.343   6.341   5.825  12.509
   58        0.343   6.341   5.825  12.509
   59        0.343   6.341   5.825  12.509
   60        0.343   6.341   5.825  12.509
   61        0.343   6.341   5.825  12.510
   62        0.343   6.341   5.825  12.510
   63        0.343   6.341   5.825  12.510
   64        0.343   6.341   5.825  12.510
--------------------------------------------------
tot         51.726 277.508 235.865 565.100
 


 magnetization (x)
 
# of ion       s       p       d       tot
------------------------------------------
    1       -0.002  -0.039   0.000  -0.041
    2       -0.002  -0.039   0.000  -0.041
    3       -0.002  -0.039   0.000  -0.041
    4       -0.002  -0.039   0.000  -0.041
    5       -0.002  -0.039   0.000  -0.041
    6       -0.002  -0.039   0.000  -0.041
    7       -0.002  -0.039   0.000  -0.041
    8       -0.002  -0.039   0.000  -0.041
    9        0.002   0.039   0.000   0.041
   10        0.002   0.039   0.000   0.041
   11        0.002   0.039   0.000   0.041
   12        0.002   0.039   0.000   0.041
   13        0.002   0.039   0.000   0.041
   14        0.002   0.039   0.000   0.041
   15        0.002   0.039   0.000   0.041
   16        0.002   0.039   0.000   0.041
   17       -0.002  -0.039   0.000  -0.041
   18       -0.002  -0.039   0.000  -0.041
   19       -0.002  -0.039   0.000  -0.041
   20       -0.002  -0.039   0.000  -0.041
   21       -0.002  -0.039   0.000  -0.041
   22       -0.002  -0.039   0.000  -0.041
   23       -0.002  -0.039   0.000  -0.041
   24       -0.002  -0.039   0.000  -0.041
   25        0.002   0.039   0.000   0.041
   26        0.002   0.039   0.000   0.041
   27        0.002   0.039   0.000   0.041
   28        0.002   0.039   0.000   0.041
   29        0.002   0.039   0.000   0.041
   30        0.002   0.039   0.000   0.041
   31        0.002   0.039   0.000   0.041
   32        0.002   0.039   0.000   0.041
   33       -0.000  -0.001   0.008   0.006
   34       -0.000  -0.001   0.008   0.006
   35       -0.000  -0.001   0.008   0.006
   36       -0.000  -0.001   0.008   0.006
   37        0.000   0.001  -0.009  -0.007
   38        0.000   0.001  -0.009  -0.007
   39        0.000   0.001  -0.009  -0.007
   40        0.000   0.001  -0.009  -0.007
   41       -0.000  -0.001   0.008   0.006
   42       -0.000  -0.001   0.008   0.006
   43       -0.000  -0.001   0.008   0.006
   44       -0.000  -0.001   0.008   0.006
   45        0.000   0.001  -0.009  -0.007
   46        0.000   0.001  -0.009  -0.007
   47        0.000   0.001  -0.009  -0.007
   48        0.000   0.001  -0.009  -0.007
   49        0.020   0.052   3.665   3.737
   50        0.020   0.052   3.665   3.737
   51        0.020   0.052   3.665   3.737
   52        0.020   0.052   3.665   3.737
   53       -0.020  -0.052  -3.664  -3.736
   54       -0.020  -0.052  -3.664  -3.736
   55       -0.020  -0.052  -3.664  -3.736
   56       -0.020  -0.052  -3.664  -3.736
   57        0.020   0.052   3.665   3.737
   58        0.020   0.052   3.665   3.737
   59        0.020   0.052   3.665   3.737
   60        0.020   0.052   3.665   3.737
   61       -0.020  -0.052  -3.664  -3.736
   62       -0.020  -0.052  -3.664  -3.736
   63       -0.020  -0.052  -3.664  -3.736
   64       -0.020  -0.052  -3.664  -3.736
--------------------------------------------------
tot         -0.003   0.002  -0.003  -0.003
 
 BZINTS: Fermi energy:  5.226361;688.000000 electrons
         Band energy:***********;  BLOECHL correction:  0.000000

 total amount of memory used by VASP MPI-rank0   299201. kBytes
=======================================================================

   base      :      30000. kBytes
   nonl-proj :     174030. kBytes
   fftplans  :       4588. kBytes
   grid      :      69719. kBytes
   one-center:       1990. kBytes
   wavefun   :      18874. kBytes
 
  
  
 General timing and accounting informations for this job:
 ========================================================
  
                  Total CPU time used (sec):     3151.919
                            User time (sec):     3141.738
                          System time (sec):       10.182
                         Elapsed time (sec):     3174.922
  
                   Maximum memory used (kb):      663368.
                   Average memory used (kb):           0.
  
                          Minor page faults:       585034
                          Major page faults:         6035
                 Voluntary context switches:         7376
