 vasp.5.4.4.18Apr17-6-g9f103f2a35 (build Oct 30 2023 17:30:16) complex          
  
 executed on             LinuxIFC date 2024.06.30  18:44:18
 running on  256 total cores
 distrk:  each k-point on  256 cores,    1 groups
 distr:  one band on NCORES_PER_BAND=   1 cores,  256 groups


--------------------------------------------------------------------------------------------------------


 INCAR:
 POTCAR:    PAW_PBE S 06Sep2000                   
 POTCAR:     PAW_PBE Cu_pv 06Sep2000              
 POTCAR:     PAW_PBE Fe_pv 02Aug2007              

 ----------------------------------------------------------------------------- 
|                                                                             |
|           W    W    AA    RRRRR   N    N  II  N    N   GGGG   !!!           |
|           W    W   A  A   R    R  NN   N  II  NN   N  G    G  !!!           |
|           W    W  A    A  R    R  N N  N  II  N N  N  G       !!!           |
|           W WW W  AAAAAA  RRRRR   N  N N  II  N  N N  G  GGG   !            |
|           WW  WW  A    A  R   R   N   NN  II  N   NN  G    G                |
|           W    W  A    A  R    R  N    N  II  N    N   GGGG   !!!           |
|                                                                             |
|      For optimal performance we recommend to set                            |
|        NCORE= 4 - approx SQRT( number of cores)                             |
|      NCORE specifies how many cores store one orbital (NPAR=cpu/NCORE).     |
|      This setting can  greatly improve the performance of VASP for DFT.     |
|      The default,   NCORE=1            might be grossly inefficient         |
|      on modern multi-core architectures or massively parallel machines.     |
|      Do your own testing !!!!                                               |
|      Unfortunately you need to use the default for GW and RPA calculations. |
|      (for HF NCORE is supported but not extensively tested yet)             |
|                                                                             |
 ----------------------------------------------------------------------------- 

 POTCAR:    PAW_PBE S 06Sep2000                   
   SHA256 =  0fc7481fb0695f01bdc6462160264c5c84044ae9ec85a907d398b887a2bc3132 S/
   COPYR  = (c) Copyright 06Sep2000 Georg Kresse                                
   COPYR  = This file is part of the software VASP. Any use, copying, and all ot
   COPYR  = If you do not have a valid VASP license, you may not use, copy or di
   VRHFIN =S : s2p4                                                             
   LEXCH  = PE                                                                  
   EATOM  =   276.8230 eV,   20.3459 Ry                                         
                                                                                
   TITEL  = PAW_PBE S 06Sep2000                                                 
   LULTRA =        F    use ultrasoft PP ?                                      
   IUNSCR =        1    unscreen: 0-lin 1-nonlin 2-no                           
   RPACOR =    1.500    partial core radius                                     
   POMASS =   32.066; ZVAL   =    6.000    mass and valenz                      
   RCORE  =    1.900    outmost cutoff radius                                   
   RWIGS  =    2.200; RWIGS  =    1.164    wigner-seitz radius (au A)           
   ENMAX  =  258.689; ENMIN  =  194.016 eV                                      
   ICORE  =        2    local potential                                         
   LCOR   =        T    correct aug charges                                     
   LPAW   =        T    paw PP                                                  
   EAUG   =  335.092                                                            
   DEXC   =    0.000                                                            
   RMAX   =    1.942    core radius for proj-oper                               
   RAUG   =    1.300    factor for augmentation sphere                          
   RDEP   =    1.954    radius for radial grids                                 
   RDEPT  =    1.744    core radius for aug-charge                              
                                                                                
   Atomic configuration                                                         
    6 entries                                                                   
     n  l   j            E        occ.                                          
     1  0  0.50     -2405.8406   2.0000                                         
     2  0  0.50      -211.7007   2.0000                                         
     2  1  1.50      -156.4958   6.0000                                         
     3  0  0.50       -17.2562   2.0000                                         
     3  1  0.50        -7.0085   4.0000                                         
     3  2  1.50        -6.8029   0.0000                                         
   Description                                                                  
     l       E           TYP  RCUT    TYP  RCUT                                 
     0    -17.2561641     23  1.900                                             
     0    -15.8743224     23  1.900                                             
     1     -7.0085400     23  1.900                                             
     1     -2.7779785     23  1.900                                             
     2     -6.8029130     23  1.900                                             
  local pseudopotential read in
  partial core-charges read in
  partial kinetic energy density read in
  atomic valenz-charges read in
  non local Contribution for L=           0  read in
    real space projection operators read in
  non local Contribution for L=           0  read in
    real space projection operators read in
  non local Contribution for L=           1  read in
    real space projection operators read in
  non local Contribution for L=           1  read in
    real space projection operators read in
    PAW grid and wavefunctions read in
 
   number of l-projection  operators is LMAX  =           4
   number of lm-projection operators is LMMAX =           8
 
 POTCAR:     PAW_PBE Cu_pv 06Sep2000              
   SHA256 =  cb7b504e2ea725fe1f25c85a9ac77d4012ce94cd394135b722c4e25ec297f1cb Cu
   COPYR  = (c) Copyright 06Sep2000 Georg Kresse                                
   COPYR  = This file is part of the software VASP. Any use, copying, and all ot
   COPYR  = If you do not have a valid VASP license, you may not use, copy or di
   VRHFIN =Cu: d10 p1                                                           
   LEXCH  = PE                                                                  
   EATOM  =  4120.1201 eV,  302.8203 Ry                                         
                                                                                
   TITEL  = PAW_PBE Cu_pv 06Sep2000                                             
   LULTRA =        F    use ultrasoft PP ?                                      
   IUNSCR =        1    unscreen: 0-lin 1-nonlin 2-no                           
   RPACOR =    1.500    partial core radius                                     
   POMASS =   63.546; ZVAL   =   17.000    mass and valenz                      
   RCORE  =    2.000    outmost cutoff radius                                   
   RWIGS  =    2.000; RWIGS  =    1.058    wigner-seitz radius (au A)           
   ENMAX  =  368.648; ENMIN  =  276.486 eV                                      
   RCLOC  =    1.304    cutoff for local pot                                    
   LCOR   =        T    correct aug charges                                     
   LPAW   =        T    paw PP                                                  
   EAUG   =  758.233                                                            
   DEXC   =    0.000                                                            
   RMAX   =    2.046    core radius for proj-oper                               
   RAUG   =    1.300    factor for augmentation sphere                          
   RDEP   =    2.025    radius for radial grids                                 
   RDEPT  =    1.558    core radius for aug-charge                              
                                                                                
   Atomic configuration                                                         
    8 entries                                                                   
     n  l   j            E        occ.                                          
     1  0  0.50     -8850.2467   2.0000                                         
     2  0  0.50     -1062.3498   2.0000                                         
     2  1  1.50      -916.8226   6.0000                                         
     3  0  0.50      -114.6929   2.0000                                         
     3  1  1.50       -72.1325   6.0000                                         
     3  2  2.50        -5.0394  10.0000                                         
     4  0  0.50        -4.6097   1.0000                                         
     4  3  2.50        -1.3606   0.0000                                         
   Description                                                                  
     l       E           TYP  RCUT    TYP  RCUT                                 
     1    -72.1324777     23  1.700                                             
     1     -1.3605826     23  1.700                                             
     2     -5.0393776     23  2.000                                             
     2     -6.3999602     23  2.000                                             
     0     -4.6097062     23  1.800                                             
     0     14.1620818     23  1.800                                             
  local pseudopotential read in
  partial core-charges read in
  partial kinetic energy density read in
  atomic valenz-charges read in
  non local Contribution for L=           1  read in
    real space projection operators read in
  non local Contribution for L=           1  read in
    real space projection operators read in
  non local Contribution for L=           2  read in
    real space projection operators read in
  non local Contribution for L=           2  read in
    real space projection operators read in
  non local Contribution for L=           0  read in
    real space projection operators read in
  non local Contribution for L=           0  read in
    real space projection operators read in
    PAW grid and wavefunctions read in
 
   number of l-projection  operators is LMAX  =           6
   number of lm-projection operators is LMMAX =          18
 
 POTCAR:     PAW_PBE Fe_pv 02Aug2007              
   SHA256 =  5d22e414b1f82158bf2c7ecb8b97b28fd0923e48cadc1c3bf74d524558f5dd32 Fe
   COPYR  = (c) Copyright 02Aug2007 Georg Kresse                                
   COPYR  = This file is part of the software VASP. Any use, copying, and all ot
   COPYR  = If you do not have a valid VASP license, you may not use, copy or di
   VRHFIN =Fe:  3pd7s1                                                          
   LEXCH  = PE                                                                  
   EATOM  =  2457.4239 eV,  180.6156 Ry                                         
                                                                                
   TITEL  = PAW_PBE Fe_pv 02Aug2007                                             
   LULTRA =        F    use ultrasoft PP ?                                      
   IUNSCR =        1    unscreen: 0-lin 1-nonlin 2-no                           
   RPACOR =    1.750    partial core radius                                     
   POMASS =   55.847; ZVAL   =   14.000    mass and valenz                      
   RCORE  =    2.200    outmost cutoff radius                                   
   RWIGS  =    2.200; RWIGS  =    1.164    wigner-seitz radius (au A)           
   ENMAX  =  293.238; ENMIN  =  219.928 eV                                      
   ICORE  =        3    local potential                                         
   LCOR   =        T    correct aug charges                                     
   LPAW   =        T    paw PP                                                  
   EAUG   =  578.342                                                            
   DEXC   =    0.000                                                            
   RMAX   =    2.249    core radius for proj-oper                               
   RAUG   =    1.300    factor for augmentation sphere                          
   RDEP   =    2.296    radius for radial grids                                 
   RDEPT  =    1.766    core radius for aug-charge                              
                                                                                
   Atomic configuration                                                         
    8 entries                                                                   
     n  l   j            E        occ.                                          
     1  0  0.50     -6993.8440   2.0000                                         
     2  0  0.50      -814.6047   2.0000                                         
     2  1  1.50      -693.3689   6.0000                                         
     3  0  0.50       -89.4732   2.0000                                         
     3  1  1.50       -55.6373   6.0000                                         
     3  2  2.50        -3.8151   7.0000                                         
     4  0  0.50        -4.2551   1.0000                                         
     4  3  2.50        -1.3606   0.0000                                         
   Description                                                                  
     l       E           TYP  RCUT    TYP  RCUT                                 
     1    -55.6372668     23  2.000                                             
     1     -5.4423304     23  2.000                                             
     2     -3.8151096     23  2.200                                             
     2     -5.1756922     23  2.200                                             
     0     -4.2550951     23  2.200                                             
     0     27.2116520     23  2.200                                             
     3     -1.3605826     23  2.200                                             
  local pseudopotential read in
  partial core-charges read in
  partial kinetic energy density read in
  atomic valenz-charges read in
  non local Contribution for L=           1  read in
    real space projection operators read in
  non local Contribution for L=           1  read in
    real space projection operators read in
  non local Contribution for L=           2  read in
    real space projection operators read in
  non local Contribution for L=           2  read in
    real space projection operators read in
  non local Contribution for L=           0  read in
    real space projection operators read in
  non local Contribution for L=           0  read in
    real space projection operators read in
    PAW grid and wavefunctions read in
 
   number of l-projection  operators is LMAX  =           6
   number of lm-projection operators is LMMAX =          18
 

 ----------------------------------------------------------------------------- 
|                                                                             |
|  ADVICE TO THIS USER RUNNING 'VASP/VAMP'   (HEAR YOUR MASTER'S VOICE ...):  |
|                                                                             |
|      You have a (more or less) 'large supercell' and for larger cells       |
|      it might be more efficient to use real space projection opertators     |
|      So try LREAL= Auto  in the INCAR   file.                               |
|      Mind:          For very  accurate calculation you might also keep the  |
|      reciprocal projection scheme          (i.e. LREAL=.FALSE.)             |
|                                                                             |
 ----------------------------------------------------------------------------- 


 ----------------------------------------------------------------------------- 
|                                                                             |
|  ADVICE TO THIS USER RUNNING 'VASP/VAMP'   (HEAR YOUR MASTER'S VOICE ...):  |
|                                                                             |
|      You enforced a specific xc-type in the INCAR file,                     |
|      a different type was found on the POTCAR file                          |
|          I HOPE YOU KNOW, WHAT YOU ARE  DOING                               |
|                                                                             |
 ----------------------------------------------------------------------------- 

  PAW_PBE S 06Sep2000                   :
 energy of atom  1       EATOM= -276.8230
 kinetic energy error for atom=    0.0007 (will be added to EATOM!!)
   PAW_PBE Cu_pv 06Sep2000              :
 energy of atom  2       EATOM=-4120.1201
 kinetic energy error for atom=    0.0094 (will be added to EATOM!!)
   PAW_PBE Fe_pv 02Aug2007              :
 energy of atom  3       EATOM=-2457.4239
 kinetic energy error for atom=    0.0025 (will be added to EATOM!!)
 
 
 POSCAR: generated by phonopy                    
  positions in direct lattice
  velocities in cartesian coordinates
 exchange correlation table for  LEXCH =       14
   RHO(1)=    0.500       N(1)  =     2000
   RHO(2)=  100.500       N(2)  =     4000
 


--------------------------------------------------------------------------------------------------------


 ion  position               nearest neighbor table
   1  0.126  0.118  0.126-  41 2.26  61 2.26  37 2.28  49 2.30
   2  0.626  0.118  0.126-  42 2.26  62 2.26  38 2.28  50 2.30
   3  0.126  0.618  0.126-  43 2.26  63 2.26  39 2.28  51 2.30
   4  0.626  0.618  0.126-  44 2.26  64 2.26  40 2.28  52 2.30
   5  0.374  0.368  0.124-  39 2.26  52 2.26  41 2.28  62 2.30
   6  0.874  0.368  0.124-  40 2.26  51 2.26  42 2.28  61 2.30
   7  0.374  0.868  0.124-  37 2.26  50 2.26  43 2.28  64 2.30
   8  0.874  0.868  0.124-  38 2.26  49 2.26  44 2.28  63 2.30
   9  0.125  0.370  0.875-  55 2.27  51 2.27  41 2.27  45 2.27
  10  0.625  0.370  0.875-  56 2.27  52 2.27  42 2.27  46 2.27
  11  0.125  0.870  0.875-  53 2.27  49 2.27  43 2.27  47 2.27
  12  0.625  0.870  0.875-  54 2.27  50 2.27  44 2.27  48 2.27
  13  0.375  0.121  0.875-  41 2.26  46 2.26  53 2.29  50 2.29
  14  0.875  0.121  0.875-  42 2.26  45 2.26  49 2.29  54 2.29
  15  0.375  0.621  0.875-  43 2.26  48 2.26  55 2.29  52 2.29
  16  0.875  0.621  0.875-  44 2.26  47 2.26  51 2.29  56 2.29
  17  0.124  0.118  0.624-  45 2.26  57 2.26  33 2.28  53 2.30
  18  0.624  0.118  0.624-  46 2.26  58 2.26  34 2.28  54 2.30
  19  0.124  0.618  0.624-  47 2.26  59 2.26  35 2.28  55 2.30
  20  0.624  0.618  0.624-  48 2.26  60 2.26  36 2.28  56 2.30
  21  0.376  0.368  0.626-  36 2.26  55 2.26  46 2.28  57 2.30
  22  0.876  0.368  0.626-  35 2.26  56 2.26  45 2.28  58 2.30
  23  0.376  0.868  0.626-  34 2.26  53 2.26  48 2.28  59 2.30
  24  0.876  0.868  0.626-  33 2.26  54 2.26  47 2.28  60 2.30
  25  0.375  0.120  0.375-  62 2.27  57 2.27  34 2.27  37 2.27
  26  0.875  0.120  0.375-  58 2.27  61 2.27  33 2.27  38 2.27
  27  0.375  0.620  0.375-  64 2.27  59 2.27  36 2.27  39 2.27
  28  0.875  0.620  0.375-  60 2.27  63 2.27  35 2.27  40 2.27
  29  0.125  0.371  0.375-  35 2.26  39 2.26  57 2.29  61 2.29
  30  0.625  0.371  0.375-  36 2.26  40 2.26  58 2.29  62 2.29
  31  0.125  0.871  0.375-  33 2.26  37 2.26  59 2.29  63 2.29
  32  0.625  0.871  0.375-  34 2.26  38 2.26  60 2.29  64 2.29
  33  0.998  0.006  0.500-  24 2.26  31 2.26  26 2.27  17 2.28
  34  0.498  0.006  0.500-  23 2.26  32 2.26  25 2.27  18 2.28
  35  0.998  0.506  0.500-  22 2.26  29 2.26  28 2.27  19 2.28
  36  0.498  0.506  0.500-  21 2.26  30 2.26  27 2.27  20 2.28
  37  0.252  0.006  0.250-   7 2.26  31 2.26  25 2.27   1 2.28
  38  0.752  0.006  0.250-   8 2.26  32 2.26  26 2.27   2 2.28
  39  0.252  0.506  0.250-   5 2.26  29 2.26  27 2.27   3 2.28
  40  0.752  0.506  0.250-   6 2.26  30 2.26  28 2.27   4 2.28
  41  0.248  0.256  1.000-   1 2.26  13 2.26   9 2.27   5 2.28
  42  0.748  0.256  1.000-   2 2.26  14 2.26  10 2.27   6 2.28
  43  0.248  0.756  1.000-   3 2.26  15 2.26  11 2.27   7 2.28
  44  0.748  0.756  1.000-   4 2.26  16 2.26  12 2.27   8 2.28
  45  0.002  0.256  0.750-  17 2.26  14 2.26   9 2.27  22 2.28
  46  0.502  0.256  0.750-  18 2.26  13 2.26  10 2.27  21 2.28
  47  0.002  0.756  0.750-  19 2.26  16 2.26  11 2.27  24 2.28
  48  0.502  0.756  0.750-  20 2.26  15 2.26  12 2.27  23 2.28
  49  0.999  0.005  0.001-   8 2.26  11 2.27  14 2.29   1 2.30
  50  0.499  0.005  0.001-   7 2.26  12 2.27  13 2.29   2 2.30
  51  0.999  0.505  0.001-   6 2.26   9 2.27  16 2.29   3 2.30
  52  0.499  0.505  0.001-   5 2.26  10 2.27  15 2.29   4 2.30
  53  0.251  0.005  0.749-  23 2.26  11 2.27  13 2.29  17 2.30
  54  0.751  0.005  0.749-  24 2.26  12 2.27  14 2.29  18 2.30
  55  0.251  0.505  0.749-  21 2.26   9 2.27  15 2.29  19 2.30
  56  0.751  0.505  0.749-  22 2.26  10 2.27  16 2.29  20 2.30
  57  0.249  0.255  0.501-  17 2.26  25 2.27  29 2.29  21 2.30
  58  0.749  0.255  0.501-  18 2.26  26 2.27  30 2.29  22 2.30
  59  0.249  0.755  0.501-  19 2.26  27 2.27  31 2.29  23 2.30
  60  0.749  0.755  0.501-  20 2.26  28 2.27  32 2.29  24 2.30
  61  0.001  0.255  0.249-   1 2.26  26 2.27  29 2.29   6 2.30
  62  0.501  0.255  0.249-   2 2.26  25 2.27  30 2.29   5 2.30
  63  0.001  0.755  0.249-   3 2.26  28 2.27  31 2.29   8 2.30
  64  0.501  0.755  0.249-   4 2.26  27 2.27  32 2.29   7 2.30
 
  LATTYP: Found a simple monoclinic cell.
 ALAT       =    15.5517870323
 B/A-ratio  =     0.6768310245
 C/A-ratio  =     1.5617444945
 COS(beta)  =    -0.9575535266
  
  Lattice vectors:
  
 A1 = ( -11.6041602828,   0.0000000000, -10.3538178480)
 A2 = (   0.0000000000, -10.5259319497,   0.0000000000)
 A3 = (  12.6923903898,   0.0000000000,  20.7076356960)


Analysis of symmetry for initial positions (statically):
=====================================================================
 Subroutine PRICEL returns following result:
 
  LATTYP: Found a simple monoclinic cell.
 ALAT       =    12.1439588883
 B/A-ratio  =     0.4333814058
 C/A-ratio  =     1.8117441646
 COS(beta)  =    -0.9790226426
  
  Lattice vectors:
  
 A1 = (  -6.3461951949,   0.0000000000, -10.3538178480)
 A2 = (   0.0000000000,  -5.2629659748,   0.0000000000)
 A3 = (   7.4344253019,   0.0000000000,  20.7076356960)
 
   4 primitive cells build up your supercell.
 

 Routine SETGRP: Setting up the symmetry group for a 
 simple monoclinic supercell.


 Subroutine GETGRP returns: Found  2 space group operations
 (whereof  1 operations were pure point group operations)
 out of a pool of  4 trial point group operations.


The static configuration has the point symmetry C_1 .
 The point group associated with its full space group is C_2 .


Analysis of symmetry for dynamics (positions and initial velocities):
=====================================================================
 Subroutine PRICEL returns following result:
 
  LATTYP: Found a simple monoclinic cell.
 ALAT       =    12.1439588883
 B/A-ratio  =     0.4333814058
 C/A-ratio  =     1.8117441646
 COS(beta)  =    -0.9790226426
  
  Lattice vectors:
  
 A1 = (  -6.3461951949,   0.0000000000, -10.3538178480)
 A2 = (   0.0000000000,  -5.2629659748,   0.0000000000)
 A3 = (   7.4344253019,   0.0000000000,  20.7076356960)
 
   4 primitive cells build up your supercell.
 

 Routine SETGRP: Setting up the symmetry group for a 
 simple monoclinic supercell.


 Subroutine GETGRP returns: Found  2 space group operations
 (whereof  1 operations were pure point group operations)
 out of a pool of  4 trial point group operations.


The dynamic configuration has the point symmetry C_1 .
 The point group associated with its full space group is C_2 .


Analysis of structural, dynamic, and magnetic symmetry:
=====================================================================
 Subroutine PRICEL returns following result:
 
  LATTYP: Found a simple monoclinic cell.
 ALAT       =    12.1439588883
 B/A-ratio  =     0.4333814058
 C/A-ratio  =     1.8117441646
 COS(beta)  =    -0.9790226426
  
  Lattice vectors:
  
 A1 = (  -6.3461951949,   0.0000000000, -10.3538178480)
 A2 = (   0.0000000000,  -5.2629659748,   0.0000000000)
 A3 = (   7.4344253019,   0.0000000000,  20.7076356960)
 
   4 primitive cells build up your supercell.
 

 Routine SETGRP: Setting up the symmetry group for a 
 simple monoclinic supercell.


 Subroutine GETGRP returns: Found  2 space group operations
 (whereof  1 operations were pure point group operations)
 out of a pool of  4 trial point group operations.


The magnetic configuration has the point symmetry C_1 .
 The point group associated with its full space group is C_2 .


 Subroutine INISYM returns: Found  2 space group operations
 (whereof  1 operations are pure point group operations),
 and found     4 'primitive' translations

 
 
 KPOINTS: Automatic mesh                          

Automatic generation of k-mesh.
Space group operators:
 irot       det(A)        alpha          n_x          n_y          n_z        tau_x        tau_y        tau_z
    1     1.000000     0.000001     1.000000     0.000000     0.000000     0.000000     0.000000     0.000000
    2     1.000000   179.999999     0.000000     1.000000     0.000000    -0.250000     0.000000    -0.250000
 
 Subroutine IBZKPT returns following result:
 ===========================================
 
 Found      8 irreducible k-points:
 
 Following reciprocal coordinates:
            Coordinates               Weight
  0.000000  0.000000  0.000000      1.000000
  0.500000  0.000000 -0.000000      1.000000
  0.000000  0.500000  0.000000      1.000000
  0.500000  0.500000 -0.000000      1.000000
  0.000000  0.000000  0.500000      1.000000
  0.500000  0.000000  0.500000      1.000000
  0.000000  0.500000  0.500000      1.000000
  0.500000  0.500000  0.500000      1.000000
 
 Following cartesian coordinates:
            Coordinates               Weight
  0.000000  0.000000  0.000000      1.000000
  0.047547  0.000000 -0.004997      1.000000
  0.000000  0.047502  0.000000      1.000000
  0.047547  0.047502 -0.004997      1.000000
  0.000000  0.000000  0.048291      1.000000
  0.047547  0.000000  0.043294      1.000000
  0.000000  0.047502  0.048291      1.000000
  0.047547  0.047502  0.043294      1.000000
 
 TETIRR: Found     24 inequivalent tetrahedra from       48
 
 Subroutine IBZKPT_HF returns following result:
 ==============================================
 
 Found      8 k-points in 1st BZ
 the following      8 k-points will be used (e.g. in the exchange kernel)
 Following reciprocal coordinates:   # in IRBZ
  0.000000  0.000000  0.000000    0.12500000   1 t-inv F
  0.500000  0.000000 -0.000000    0.12500000   2 t-inv F
  0.000000  0.500000  0.000000    0.12500000   3 t-inv F
  0.500000  0.500000 -0.000000    0.12500000   4 t-inv F
  0.000000  0.000000  0.500000    0.12500000   5 t-inv F
  0.500000  0.000000  0.500000    0.12500000   6 t-inv F
  0.000000  0.500000  0.500000    0.12500000   7 t-inv F
  0.500000  0.500000  0.500000    0.12500000   8 t-inv F


--------------------------------------------------------------------------------------------------------




 Dimension of arrays:
   k-points           NKPTS =      8   k-points in BZ     NKDIM =      8   number of bands    NBANDS=    512
   number of dos      NEDOS =    301   number of ions     NIONS =     64
   non local maximal  LDIM  =      6   non local SUM 2l+1 LMDIM =     18
   total plane-waves  NPLWV = 829440
   max r-space proj   IRMAX =      1   max aug-charges    IRDMAX=  22998
   dimension x,y,z NGX =    96 NGY =   96 NGZ =   90
   dimension x,y,z NGXF=   192 NGYF=  192 NGZF=  180
   support grid    NGXF=   192 NGYF=  192 NGZF=  180
   ions per type =              32  16  16
   NGX,Y,Z   is equivalent  to a cutoff of  15.18, 15.16, 14.37 a.u.
   NGXF,Y,Z  is equivalent  to a cutoff of  30.35, 30.32, 28.74 a.u.

 SYSTEM =  CuFeS2                                  
 POSCAR =  generated by phonopy                    

 Startparameter for this run:
   NWRITE =      2    write-flag & timer
   PREC   = accura    normal or accurate (medium, high low for compatibility)
   ISTART =      0    job   : 0-new  1-cont  2-samecut
   ICHARG =      1    charge: 1-file 2-atom 10-const
   ISPIN  =      2    spin polarized calculation?
   LNONCOLLINEAR =      F non collinear calculations
   LSORBIT =      F    spin-orbit coupling
   INIWAV =      1    electr: 0-lowe 1-rand  2-diag
   LASPH  =      F    aspherical Exc in radial PAW
   METAGGA=      F    non-selfconsistent MetaGGA calc.

 Electronic Relaxation 1
   ENCUT  =  700.0 eV  51.45 Ry    7.17 a.u.  22.69 22.71 22.46*2*pi/ulx,y,z
   ENINI  =  700.0     initial cutoff
   ENAUG  =  758.2 eV  augmentation charge cutoff
   NELM   =    500;   NELMIN=  2; NELMDL= -5     # of ELM steps 
   EDIFF  = 0.1E-07   stopping-criterion for ELM
   LREAL  =      F    real-space projection
   NLSPLINE    = F    spline interpolate recip. space projectors
   LCOMPAT=      F    compatible to vasp.4.4
   GGA_COMPAT  = T    GGA compatible to vasp.4.4-vasp.4.6
   LMAXPAW     = -100 max onsite density
   LMAXMIX     =    4 max onsite mixed and CHGCAR
   VOSKOWN=      0    Vosko Wilk Nusair interpolation
   ROPT   =    0.00000   0.00000   0.00000
 Ionic relaxation
   EDIFFG = -.1E-04   stopping-criterion for IOM
   NSW    =      0    number of steps for IOM
   NBLOCK =      1;   KBLOCK =      1    inner block; outer block 
   IBRION =     -1    ionic relax: 0-MD 1-quasi-New 2-CG
   NFREE  =      0    steps in history (QN), initial steepest desc. (CG)
   ISIF   =      2    stress and relaxation
   IWAVPR =     10    prediction:  0-non 1-charg 2-wave 3-comb
   ISYM   =      2    0-nonsym 1-usesym 2-fastsym
   LCORR  =      T    Harris-Foulkes like correction to forces

   POTIM  = 0.5000    time-step for ionic-motion
   TEIN   =    0.0    initial temperature
   TEBEG  =    0.0;   TEEND  =   0.0 temperature during run
   SMASS  =  -3.00    Nose mass-parameter (am)
   estimated Nose-frequenzy (Omega)   =  0.10E-29 period in steps =****** mass=  -0.253E-26a.u.
   SCALEE = 1.0000    scale energy and forces
   NPACO  =    256;   APACO  = 16.0  distance and # of slots for P.C.
   PSTRESS=    0.0 pullay stress

  Mass of Ions in am
   POMASS =  32.07 63.55 55.85
  Ionic Valenz
   ZVAL   =   6.00 17.00 14.00
  Atomic Wigner-Seitz radii
   RWIGS  =  -1.00 -1.00 -1.00
  virtual crystal weights 
   VCA    =   1.00  1.00  1.00
   NELECT =     688.0000    total number of electrons
   NUPDOWN=      -1.0000    fix difference up-down

 DOS related values:
   EMIN   =  10.00;   EMAX   =-10.00  energy-range for DOS
   EFERMI =   0.00
   ISMEAR =    -5;   SIGMA  =   0.03  broadening in eV -4-tet -1-fermi 0-gaus

 Electronic relaxation 2 (details)
   IALGO  =     38    algorithm
   LDIAG  =      T    sub-space diagonalisation (order eigenvalues)
   LSUBROT=      F    optimize rotation matrix (better conditioning)
   TURBO    =      0    0=normal 1=particle mesh
   IRESTART =      0    0=no restart 2=restart with 2 vectors
   NREBOOT  =      0    no. of reboots
   NMIN     =      0    reboot dimension
   EREF     =   0.00    reference energy to select bands
   IMIX   =      4    mixing-type and parameters
     AMIX     =   0.40;   BMIX     =  1.00
     AMIX_MAG =   1.60;   BMIX_MAG =  1.00
     AMIN     =   0.10
     WC   =   100.;   INIMIX=   1;  MIXPRE=   1;  MAXMIX= -45

 Intra band minimization:
   WEIMIN = 0.0000     energy-eigenvalue tresh-hold
   EBREAK =  0.49E-11  absolut break condition
   DEPER  =   0.30     relativ break condition  

   TIME   =   0.40     timestep for ELM

  volume/ion in A,a.u.               =      17.91       120.84
  Fermi-wavevector in a.u.,A,eV,Ry     =   1.381025  2.609758 25.949422  1.907229
  Thomas-Fermi vector in A             =   2.505847
 
 Write flags
   LWAVE        =      T    write WAVECAR
   LDOWNSAMPLE  =      F    k-point downsampling of WAVECAR
   LCHARG       =      T    write CHGCAR
   LVTOT        =      F    write LOCPOT, total local potential
   LVHAR        =      F    write LOCPOT, Hartree potential only
   LELF         =      F    write electronic localiz. function (ELF)
   LORBIT       =     11    0 simple, 1 ext, 2 COOP (PROOUT), +10 PAW based schemes


 Dipole corrections
   LMONO  =      F    monopole corrections only (constant potential shift)
   LDIPOL =      F    correct potential (dipole corrections)
   IDIPOL =      0    1-x, 2-y, 3-z, 4-all directions 
   EPSILON=  1.0000000 bulk dielectric constant

 LDA+U is selected, type is set to LDAUTYPE =  2
   angular momentum for each species LDAUL =     2    2    2
   U (eV)           for each species LDAUU =   0.0  0.1  4.7
   J (eV)           for each species LDAUJ =   0.0  0.0  0.0
 Exchange correlation treatment:
   GGA     =    PS    GGA type
   LEXCH   =    14    internal setting for exchange type
   VOSKOWN=      0    Vosko Wilk Nusair interpolation
   LHFCALC =     F    Hartree Fock is set to
   LHFONE  =     F    Hartree Fock one center treatment
   AEXX    =    0.0000 exact exchange contribution

 Linear response parameters
   LEPSILON=     F    determine dielectric tensor
   LRPA    =     F    only Hartree local field effects (RPA)
   LNABLA  =     F    use nabla operator in PAW spheres
   LVEL    =     F    velocity operator in full k-point grid
   LINTERFAST=   F  fast interpolation
   KINTER  =     0    interpolate to denser k-point grid
   CSHIFT  =0.1000    complex shift for real part using Kramers Kronig
   OMEGAMAX=  -1.0    maximum frequency
   DEG_THRESHOLD= 0.2000000E-02 threshold for treating states as degnerate
   RTIME   =   -0.100 relaxation time in fs
  (WPLASMAI=    0.000 imaginary part of plasma frequency in eV, 0.658/RTIME)
   DFIELD  = 0.0000000 0.0000000 0.0000000 field for delta impulse in time
 
 Orbital magnetization related:
   ORBITALMAG=     F  switch on orbital magnetization
   LCHIMAG   =     F  perturbation theory with respect to B field
   DQ        =  0.001000  dq finite difference perturbation B field
   LLRAUG    =     F  two centre corrections for induced B field

 PEAD related settings:
   LPEAD      =     T    switch on PEAD
   IPEAD      =     4    finite difference order for dpsi/dk
   LCALCPOL   =     T    calculate macroscopic polarization
   LCALCEPS   =     F    calculate dielectric tensor
   EFIELD_PEAD=    0.0000    0.0000    0.0000
   SKIP_EDOTP =     F
   LRPA       =     F
   SKIP_SCF   =     F


--------------------------------------------------------------------------------------------------------


 Static calculation
 charge density and potential will be updated during run
 spin polarized calculation
 Variant of blocked Davidson
 Davidson routine will perform the subspace rotation
 perform sub-space diagonalisation
    after iterative eigenvector-optimisation
 modified Broyden-mixing scheme, WC =      100.0
 initial mixing is a Kerker type mixing with AMIX =  0.4000 and BMIX =      1.0000
 Hartree-type preconditioning will be used
 using additional bands          168
 reciprocal scheme for non local part
 use partial core corrections
 calculate Harris-corrections to forces 
   (improved forces if not selfconsistent)
 use gradient corrections 
 use of overlap-Matrix (Vanderbilt PP)
 Fermi weights with tetrahedron method with Bloechl corrections


--------------------------------------------------------------------------------------------------------


  energy-cutoff  :      700.00
  volume of cell :     1146.06
      direct lattice vectors                 reciprocal lattice vectors
    10.515930176  0.000000000  0.000000000     0.095093823  0.000000000 -0.009994764
     0.000000000 10.525931950  0.000000000     0.000000000  0.095003464  0.000000000
     1.088230107  0.000000000 10.353817848     0.000000000  0.000000000  0.096582731

  length of vectors
    10.515930176 10.525931950 10.410849571     0.095617626  0.095003464  0.096582731


 
 k-points in units of 2pi/SCALE and weight: Automatic mesh                          
   0.00000000  0.00000000  0.00000000       0.125
   0.04754691  0.00000000 -0.00499738       0.125
   0.00000000  0.04750173  0.00000000       0.125
   0.04754691  0.04750173 -0.00499738       0.125
   0.00000000  0.00000000  0.04829137       0.125
   0.04754691  0.00000000  0.04329398       0.125
   0.00000000  0.04750173  0.04829137       0.125
   0.04754691  0.04750173  0.04329398       0.125
 
 k-points in reciprocal lattice and weights: Automatic mesh                          
   0.00000000  0.00000000  0.00000000       0.125
   0.50000000  0.00000000 -0.00000000       0.125
   0.00000000  0.50000000  0.00000000       0.125
   0.50000000  0.50000000 -0.00000000       0.125
   0.00000000  0.00000000  0.50000000       0.125
   0.50000000  0.00000000  0.50000000       0.125
   0.00000000  0.50000000  0.50000000       0.125
   0.50000000  0.50000000  0.50000000       0.125
 
 position of ions in fractional coordinates (direct lattice) 
   0.12640514  0.11830547  0.12600690
   0.62640513  0.11830547  0.12600690
   0.12640514  0.61830547  0.12600690
   0.62640513  0.61830547  0.12600690
   0.37359487  0.36830547  0.12399310
   0.87359487  0.36830547  0.12399310
   0.37359487  0.86830547  0.12399310
   0.87359487  0.86830547  0.12399310
   0.12500000  0.36984654  0.87500000
   0.62500000  0.36984654  0.87500000
   0.12500000  0.86984654  0.87500000
   0.62500000  0.86984654  0.87500000
   0.37500000  0.12147494  0.87500000
   0.87500000  0.12147494  0.87500000
   0.37500000  0.62147492  0.87500000
   0.87500000  0.62147492  0.87500000
   0.12359486  0.11830547  0.62399310
   0.62359487  0.11830547  0.62399310
   0.12359486  0.61830547  0.62399310
   0.62359487  0.61830547  0.62399310
   0.37640513  0.36830547  0.62600690
   0.87640513  0.36830547  0.62600690
   0.37640513  0.86830547  0.62600690
   0.87640513  0.86830547  0.62600690
   0.37500000  0.11984654  0.37500000
   0.87500000  0.11984654  0.37500000
   0.37500000  0.61984654  0.37500000
   0.87500000  0.61984654  0.37500000
   0.12500000  0.37147492  0.37500000
   0.62500000  0.37147492  0.37500000
   0.12500000  0.87147492  0.37500000
   0.62500000  0.87147492  0.37500000
   0.99766790  0.00561390  0.49999401
   0.49766790  0.00561390  0.49999401
   0.99766790  0.50561390  0.49999401
   0.49766790  0.50561390  0.49999401
   0.25233210  0.00561390  0.25000599
   0.75233210  0.00561390  0.25000599
   0.25233210  0.50561390  0.25000599
   0.75233210  0.50561390  0.25000599
   0.24766790  0.25561390  0.99999401
   0.74766790  0.25561390  0.99999401
   0.24766790  0.75561390  0.99999401
   0.74766790  0.75561390  0.99999401
   0.00233210  0.25561390  0.75000599
   0.50233210  0.25561390  0.75000599
   0.00233210  0.75561390  0.75000599
   0.50233210  0.75561390  0.75000599
   0.99867979  0.00541990  0.00066622
   0.49867979  0.00541990  0.00066622
   0.99867979  0.50541990  0.00066622
   0.49867979  0.50541990  0.00066622
   0.25132021  0.00541990  0.74933378
   0.75132021  0.00541990  0.74933378
   0.25132021  0.50541990  0.74933378
   0.75132021  0.50541990  0.74933378
   0.24867979  0.25541990  0.50066622
   0.74867979  0.25541990  0.50066622
   0.24867979  0.75541990  0.50066622
   0.74867979  0.75541990  0.50066622
   0.00132021  0.25541990  0.24933378
   0.50132021  0.25541990  0.24933378
   0.00132021  0.75541990  0.24933378
   0.50132021  0.75541990  0.24933378
 
 position of ions in cartesian coordinates  (Angst):
   1.46639217  1.24527530  1.30465245
   6.72435710  1.24527530  1.30465245
   1.46639217  6.50824127  1.30465245
   6.72435710  6.50824127  1.30465245
   4.06363060  3.87675828  1.28380201
   9.32159569  3.87675828  1.28380201
   4.06363060  9.13972426  1.28380201
   9.32159569  9.13972426  1.28380201
   2.26669262  3.89297955  9.05959062
   7.52465770  3.89297955  9.05959062
   2.26669262  9.15594553  9.05959062
   7.52465770  9.15594553  9.05959062
   4.89567516  1.27863693  9.05959062
  10.15364025  1.27863693  9.05959062
   4.89567516  6.54160275  9.05959062
  10.15364025  6.54160275  9.05959062
   1.97876303  1.24527530  6.46071093
   7.23672820  1.24527530  6.46071093
   1.97876303  6.50824127  6.46071093
   7.23672820  6.50824127  6.46071093
   4.63948961  3.87675828  6.48156138
   9.89745470  3.87675828  6.48156138
   4.63948961  9.13972426  6.48156138
   9.89745470  9.13972426  6.48156138
   4.35156011  1.26149648  3.88268169
   9.60952519  1.26149648  3.88268169
   4.35156011  6.52446254  3.88268169
   9.60952519  6.52446254  3.88268169
   1.72257756  3.91011976  3.88268169
   6.98054265  3.91011976  3.88268169
   1.72257756  9.17308573  3.88268169
   6.98054265  9.17308573  3.88268169
  11.03551456  0.05909151  5.17684691
   5.77754947  0.05909151  5.17684691
  11.03551456  5.32205748  5.17684691
   5.77754947  5.32205748  5.17684691
   2.92557074  0.05909151  2.58851647
   8.18353583  0.05909151  2.58851647
   2.92557074  5.32205748  2.58851647
   8.18353583  5.32205748  2.58851647
   3.69268198  2.69057450 10.35375584
   8.95064707  2.69057450 10.35375584
   3.69268198  7.95354047 10.35375584
   8.95064707  7.95354047 10.35375584
   0.84070325  2.69057450  7.76542540
   6.09866834  2.69057450  7.76542540
   0.84070325  7.95354047  7.76542540
   6.09866834  7.95354047  7.76542540
  10.50277196  0.05704951  0.00689789
   5.24480687  0.05704951  0.00689789
  10.50277196  5.32001549  0.00689789
   5.24480687  5.32001549  0.00689789
   3.45831334  0.05704951  7.75846549
   8.71627843  0.05704951  7.75846549
   3.45831334  5.32001549  7.75846549
   8.71627843  5.32001549  7.75846549
   3.15993938  2.68853250  5.18380682
   8.41790447  2.68853250  5.18380682
   3.15993938  7.95149848  5.18380682
   8.41790447  7.95149848  5.18380682
   0.28521574  2.68853250  2.58155657
   5.54318083  2.68853250  2.58155657
   0.28521574  7.95149848  2.58155657
   5.54318083  7.95149848  2.58155657
 


--------------------------------------------------------------------------------------------------------


 k-point  1 :   0.0000 0.0000 0.0000  plane waves:   48259
 k-point  2 :   0.5000 0.0000-0.0000  plane waves:   48212
 k-point  3 :   0.0000 0.5000 0.0000  plane waves:   48242
 k-point  4 :   0.5000 0.5000-0.0000  plane waves:   48200
 k-point  5 :   0.0000 0.0000 0.5000  plane waves:   48130
 k-point  6 :   0.5000 0.0000 0.5000  plane waves:   48216
 k-point  7 :   0.0000 0.5000 0.5000  plane waves:   48168
 k-point  8 :   0.5000 0.5000 0.5000  plane waves:   48140

 maximum and minimum number of plane-waves per node :     48259    48130

 maximum number of plane-waves:     48259
 maximum index in each direction: 
   IXMAX=   22   IYMAX=   22   IZMAX=   22
   IXMIN=  -23   IYMIN=  -23   IZMIN=  -22


 serial   3D FFT for wavefunctions
 parallel 3D FFT for charge:
    minimum data exchange during FFTs selected (reduces bandwidth)


 total amount of memory used by VASP MPI-rank0   348353. kBytes
=======================================================================

   base      :      30000. kBytes
   nonl-proj :     216760. kBytes
   fftplans  :       4588. kBytes
   grid      :      69719. kBytes
   one-center:       1990. kBytes
   wavefun   :      25296. kBytes
 
     INWAV:  cpu time    0.0001: real time    0.0002
 Broyden mixing: mesh for mixing (old mesh)
   NGX = 45   NGY = 45   NGZ = 45
  (NGX  =192   NGY  =192   NGZ  =180)
  gives a total of  91125 points

 initial charge density was supplied:
 number of electron     688.0000090 magnetization      -0.0000000
 keeping initial charge density in first step


--------------------------------------------------------------------------------------------------------


 Maximum index for augmentation-charges          896 (set IRDMAX)


--------------------------------------------------------------------------------------------------------


 First call to EWALD:  gamma=   0.169
 Maximum number of real-space cells 3x 3x 3
 Maximum number of reciprocal cells 3x 3x 3

    FEWALD:  cpu time    0.0027: real time    0.0027


--------------------------------------- Iteration      1(   1)  ---------------------------------------


    POTLOK:  cpu time    0.3939: real time    0.4474
    SETDIJ:  cpu time    0.0153: real time    0.0154
     EDDAV:  cpu time   87.9303: real time   88.9136
 BZINTS: Fermi energy: 15.035784;688.000000 electrons
         Band energy:***********;  BLOECHL correction: -0.019161
       DOS:  cpu time    0.0391: real time    0.0392
    --------------------------------------------
      LOOP:  cpu time   88.3786: real time   89.4156

 eigenvalue-minimisations  : 16384
 total energy-change (2. order) : 0.6052173E+04  (-0.5155528E+05)
 number of electron     688.0000090 magnetization      -0.0000000
 augmentation part      688.0000090 magnetization      -0.0000000

 Free energy of the ion-electron system (eV)
  ---------------------------------------------------
  alpha Z        PSCENC =      2365.61933805
  Ewald energy   TEWEN  =    -62596.37524449
  -Hartree energ DENC   =    -42874.10670620
  -exchange      EXHF   =         0.00000000
  -V(xc)+E(xc)   XCENC  =      3286.46151241
  PAW double counting   =    112172.40918864  -115864.60158339
  entropy T*S    EENTRO =         0.00000000
  eigenvalues    EBANDS =     -4457.29854060
  atomic energy  EATOM  =    114020.06510763
  Solvation  Ediel_sol  =         0.00000000
  ---------------------------------------------------
  free energy    TOTEN  =      6052.17307203 eV

  energy without entropy =     6052.17307203  energy(sigma->0) =     6052.17307203


--------------------------------------------------------------------------------------------------------




--------------------------------------- Iteration      1(   2)  ---------------------------------------


     EDDAV:  cpu time  103.0684: real time  103.8566
 BZINTS: Fermi energy:  5.690144;688.000000 electrons
         Band energy:***********;  BLOECHL correction:  0.000000
       DOS:  cpu time    0.0078: real time    0.0078
    --------------------------------------------
      LOOP:  cpu time  103.0762: real time  103.8644

 eigenvalue-minimisations  : 18176
 total energy-change (2. order) :-0.6130243E+04  (-0.6019952E+04)
 number of electron     688.0000090 magnetization      -0.0000000
 augmentation part      688.0000090 magnetization      -0.0000000

 Free energy of the ion-electron system (eV)
  ---------------------------------------------------
  alpha Z        PSCENC =      2365.61933805
  Ewald energy   TEWEN  =    -62596.37524449
  -Hartree energ DENC   =    -42874.10670620
  -exchange      EXHF   =         0.00000000
  -V(xc)+E(xc)   XCENC  =      3286.46151241
  PAW double counting   =    112172.40918864  -115864.60158339
  entropy T*S    EENTRO =         0.00000000
  eigenvalues    EBANDS =    -10587.54198002
  atomic energy  EATOM  =    114020.06510763
  Solvation  Ediel_sol  =         0.00000000
  ---------------------------------------------------
  free energy    TOTEN  =       -78.07036738 eV

  energy without entropy =      -78.07036738  energy(sigma->0) =      -78.07036738


--------------------------------------------------------------------------------------------------------




--------------------------------------- Iteration      1(   3)  ---------------------------------------


     EDDAV:  cpu time  159.9127: real time  161.0253
 BZINTS: Fermi energy:  4.997590;688.000000 electrons
         Band energy:***********;  BLOECHL correction:  0.000000
       DOS:  cpu time    0.0053: real time    0.0053
    --------------------------------------------
      LOOP:  cpu time  159.9180: real time  161.0307

 eigenvalue-minimisations  : 22784
 total energy-change (2. order) :-0.2453799E+03  (-0.2445178E+03)
 number of electron     688.0000090 magnetization      -0.0000000
 augmentation part      688.0000090 magnetization      -0.0000000

 Free energy of the ion-electron system (eV)
  ---------------------------------------------------
  alpha Z        PSCENC =      2365.61933805
  Ewald energy   TEWEN  =    -62596.37524449
  -Hartree energ DENC   =    -42874.10670620
  -exchange      EXHF   =         0.00000000
  -V(xc)+E(xc)   XCENC  =      3286.46151241
  PAW double counting   =    112172.40918864  -115864.60158339
  entropy T*S    EENTRO =         0.00000000
  eigenvalues    EBANDS =    -10832.92190652
  atomic energy  EATOM  =    114020.06510763
  Solvation  Ediel_sol  =         0.00000000
  ---------------------------------------------------
  free energy    TOTEN  =      -323.45029389 eV

  energy without entropy =     -323.45029389  energy(sigma->0) =     -323.45029389


--------------------------------------------------------------------------------------------------------




--------------------------------------- Iteration      1(   4)  ---------------------------------------


     EDDAV:  cpu time  121.0012: real time  121.8860
 BZINTS: Fermi energy:  4.994416;688.000000 electrons
         Band energy:***********;  BLOECHL correction:  0.000000
       DOS:  cpu time    0.0061: real time    0.0062
    --------------------------------------------
      LOOP:  cpu time  121.0073: real time  121.8921

 eigenvalue-minimisations  : 19456
 total energy-change (2. order) :-0.3387531E+01  (-0.3387374E+01)
 number of electron     688.0000090 magnetization      -0.0000000
 augmentation part      688.0000090 magnetization      -0.0000000

 Free energy of the ion-electron system (eV)
  ---------------------------------------------------
  alpha Z        PSCENC =      2365.61933805
  Ewald energy   TEWEN  =    -62596.37524449
  -Hartree energ DENC   =    -42874.10670620
  -exchange      EXHF   =         0.00000000
  -V(xc)+E(xc)   XCENC  =      3286.46151241
  PAW double counting   =    112172.40918864  -115864.60158339
  entropy T*S    EENTRO =         0.00000000
  eigenvalues    EBANDS =    -10836.30943774
  atomic energy  EATOM  =    114020.06510763
  Solvation  Ediel_sol  =         0.00000000
  ---------------------------------------------------
  free energy    TOTEN  =      -326.83782511 eV

  energy without entropy =     -326.83782511  energy(sigma->0) =     -326.83782511


--------------------------------------------------------------------------------------------------------




--------------------------------------- Iteration      1(   5)  ---------------------------------------


     EDDAV:  cpu time  150.7312: real time  151.7949
 BZINTS: Fermi energy:  4.962379;688.000000 electrons
         Band energy:***********;  BLOECHL correction:  0.000000
       DOS:  cpu time    0.0059: real time    0.0060
    CHARGE:  cpu time    1.3460: real time    1.3564
    MIXING:  cpu time    0.0028: real time    0.0029
    --------------------------------------------
      LOOP:  cpu time  152.0860: real time  153.1601

 eigenvalue-minimisations  : 22016
 total energy-change (2. order) :-0.1025796E+00  (-0.1025791E+00)
 number of electron     688.0000090 magnetization      -0.0000000
 augmentation part      282.2653797 magnetization      -0.0000000

 Broyden mixing:
  rms(total) = 0.25240E-01    rms(broyden)= 0.25236E-01
  rms(prec ) = 0.25324E-01
  weight for this iteration     100.00

 Free energy of the ion-electron system (eV)
  ---------------------------------------------------
  alpha Z        PSCENC =      2365.61933805
  Ewald energy   TEWEN  =    -62596.37524449
  -Hartree energ DENC   =    -42874.10670620
  -exchange      EXHF   =         0.00000000
  -V(xc)+E(xc)   XCENC  =      3286.46151241
  PAW double counting   =    112172.40918864  -115864.60158339
  entropy T*S    EENTRO =         0.00000000
  eigenvalues    EBANDS =    -10836.41201738
  atomic energy  EATOM  =    114020.06510763
  Solvation  Ediel_sol  =         0.00000000
  ---------------------------------------------------
  free energy    TOTEN  =      -326.94040475 eV

  energy without entropy =     -326.94040475  energy(sigma->0) =     -326.94040475


--------------------------------------------------------------------------------------------------------




--------------------------------------- Iteration      1(   6)  ---------------------------------------


    POTLOK:  cpu time    0.1347: real time    0.1387
    SETDIJ:  cpu time    0.0132: real time    0.0132
     EDDAV:  cpu time  162.7340: real time  163.8632
 BZINTS: Fermi energy:  5.028162;688.000000 electrons
         Band energy:***********;  BLOECHL correction:  0.000000
       DOS:  cpu time    0.0052: real time    0.0052
    CHARGE:  cpu time    1.3457: real time    1.3560
    MIXING:  cpu time    0.0028: real time    0.0115
    --------------------------------------------
      LOOP:  cpu time  164.2357: real time  165.3879

 eigenvalue-minimisations  : 23296
 total energy-change (2. order) :-0.5058838E-02  (-0.5082002E-02)
 number of electron     688.0000090 magnetization      -0.0000000
 augmentation part      282.2369310 magnetization      -0.0000000

 Broyden mixing:
  rms(total) = 0.99971E-02    rms(broyden)= 0.99943E-02
  rms(prec ) = 0.10325E-01
  weight for this iteration     100.00

 eigenvalues of (default mixing * dielectric matrix)
  average eigenvalue GAMMA=   0.7005
  0.7005

 Free energy of the ion-electron system (eV)
  ---------------------------------------------------
  alpha Z        PSCENC =      2365.61933805
  Ewald energy   TEWEN  =    -62596.37524449
  -Hartree energ DENC   =    -42874.66514633
  -exchange      EXHF   =         0.00000000
  -V(xc)+E(xc)   XCENC  =      3286.48195681
  PAW double counting   =    112193.16934141  -115885.56033465
  entropy T*S    EENTRO =         0.00000000
  eigenvalues    EBANDS =    -10835.68048201
  atomic energy  EATOM  =    114020.06510763
  Solvation  Ediel_sol  =         0.00000000
  ---------------------------------------------------
  free energy    TOTEN  =      -326.94546359 eV

  energy without entropy =     -326.94546359  energy(sigma->0) =     -326.94546359


--------------------------------------------------------------------------------------------------------




--------------------------------------- Iteration      1(   7)  ---------------------------------------


    POTLOK:  cpu time    0.1376: real time    0.1398
    SETDIJ:  cpu time    0.0133: real time    0.0133
     EDDAV:  cpu time  151.6434: real time  152.7076
 BZINTS: Fermi energy:  5.026153;688.000000 electrons
         Band energy:***********;  BLOECHL correction:  0.000000
       DOS:  cpu time    0.0051: real time    0.0051
    CHARGE:  cpu time    1.3464: real time    1.3548
    MIXING:  cpu time    0.0019: real time    0.0275
    --------------------------------------------
      LOOP:  cpu time  153.1476: real time  154.2480

 eigenvalue-minimisations  : 22016
 total energy-change (2. order) :-0.2722958E-03  (-0.3034771E-03)
 number of electron     688.0000090 magnetization      -0.0000000
 augmentation part      282.2524467 magnetization      -0.0000000

 Broyden mixing:
  rms(total) = 0.85735E-02    rms(broyden)= 0.85724E-02
  rms(prec ) = 0.86267E-02
  weight for this iteration     100.00

 eigenvalues of (default mixing * dielectric matrix)
  average eigenvalue GAMMA=   0.5383
  0.5383  0.5383

 Free energy of the ion-electron system (eV)
  ---------------------------------------------------
  alpha Z        PSCENC =      2365.61933805
  Ewald energy   TEWEN  =    -62596.37524449
  -Hartree energ DENC   =    -42873.80612227
  -exchange      EXHF   =         0.00000000
  -V(xc)+E(xc)   XCENC  =      3286.45804285
  PAW double counting   =    112185.84305047  -115878.05826682
  entropy T*S    EENTRO =         0.00000000
  eigenvalues    EBANDS =    -10836.69164129
  atomic energy  EATOM  =    114020.06510763
  Solvation  Ediel_sol  =         0.00000000
  ---------------------------------------------------
  free energy    TOTEN  =      -326.94573588 eV

  energy without entropy =     -326.94573588  energy(sigma->0) =     -326.94573588


--------------------------------------------------------------------------------------------------------




--------------------------------------- Iteration      1(   8)  ---------------------------------------


    POTLOK:  cpu time    0.1377: real time    0.1386
    SETDIJ:  cpu time    0.0132: real time    0.0132
     EDDAV:  cpu time  153.2734: real time  154.3592
 BZINTS: Fermi energy:  5.026099;688.000000 electrons
         Band energy:***********;  BLOECHL correction:  0.000000
       DOS:  cpu time    0.0052: real time    0.0052
    CHARGE:  cpu time    1.4753: real time    1.4856
    MIXING:  cpu time    0.0021: real time    0.0470
    --------------------------------------------
      LOOP:  cpu time  154.9068: real time  156.0487

 eigenvalue-minimisations  : 22784
 total energy-change (2. order) :-0.2084412E-04  (-0.2420629E-04)
 number of electron     688.0000090 magnetization      -0.0000000
 augmentation part      282.2490464 magnetization      -0.0000000

 Broyden mixing:
  rms(total) = 0.72261E-02    rms(broyden)= 0.72259E-02
  rms(prec ) = 0.72552E-02
  weight for this iteration     100.00

 eigenvalues of (default mixing * dielectric matrix)
  average eigenvalue GAMMA=   0.4703
  0.5121  0.5121  0.3866

 Free energy of the ion-electron system (eV)
  ---------------------------------------------------
  alpha Z        PSCENC =      2365.61933805
  Ewald energy   TEWEN  =    -62596.37524449
  -Hartree energ DENC   =    -42874.07926241
  -exchange      EXHF   =         0.00000000
  -V(xc)+E(xc)   XCENC  =      3286.46486260
  PAW double counting   =    112184.07081650  -115876.32426977
  entropy T*S    EENTRO =         0.00000000
  eigenvalues    EBANDS =    -10836.38710484
  atomic energy  EATOM  =    114020.06510763
  Solvation  Ediel_sol  =         0.00000000
  ---------------------------------------------------
  free energy    TOTEN  =      -326.94575673 eV

  energy without entropy =     -326.94575673  energy(sigma->0) =     -326.94575673


--------------------------------------------------------------------------------------------------------




--------------------------------------- Iteration      1(   9)  ---------------------------------------


    POTLOK:  cpu time    0.1463: real time    0.1473
    SETDIJ:  cpu time    0.0143: real time    0.0144
     EDDAV:  cpu time  167.0503: real time  168.2088
 BZINTS: Fermi energy:  5.025986;688.000000 electrons
         Band energy:***********;  BLOECHL correction:  0.000000
       DOS:  cpu time    0.0052: real time    0.0052
    CHARGE:  cpu time    1.3453: real time    1.3554
    MIXING:  cpu time    0.0019: real time    0.0019
    --------------------------------------------
      LOOP:  cpu time  168.5632: real time  169.7330

 eigenvalue-minimisations  : 23296
 total energy-change (2. order) : 0.4109170E-06  (-0.6315696E-06)
 number of electron     688.0000090 magnetization      -0.0000000
 augmentation part      282.2483876 magnetization      -0.0000000

 Broyden mixing:
  rms(total) = 0.65900E-02    rms(broyden)= 0.65900E-02
  rms(prec ) = 0.66049E-02
  weight for this iteration     100.00

 eigenvalues of (default mixing * dielectric matrix)
  average eigenvalue GAMMA=   0.5282
  0.6687  0.6687  0.3877  0.3877

 Free energy of the ion-electron system (eV)
  ---------------------------------------------------
  alpha Z        PSCENC =      2365.61933805
  Ewald energy   TEWEN  =    -62596.37524449
  -Hartree energ DENC   =    -42874.09910739
  -exchange      EXHF   =         0.00000000
  -V(xc)+E(xc)   XCENC  =      3286.46405452
  PAW double counting   =    112183.16749735  -115875.41854472
  entropy T*S    EENTRO =         0.00000000
  eigenvalues    EBANDS =    -10836.36885727
  atomic energy  EATOM  =    114020.06510763
  Solvation  Ediel_sol  =         0.00000000
  ---------------------------------------------------
  free energy    TOTEN  =      -326.94575632 eV

  energy without entropy =     -326.94575632  energy(sigma->0) =     -326.94575632


--------------------------------------------------------------------------------------------------------




--------------------------------------- Iteration      1(  10)  ---------------------------------------


    POTLOK:  cpu time    0.1341: real time    0.1388
    SETDIJ:  cpu time    0.0132: real time    0.0133
     EDDAV:  cpu time  117.8600: real time  118.7274
 BZINTS: Fermi energy:  5.025998;688.000000 electrons
         Band energy:***********;  BLOECHL correction:  0.000000
       DOS:  cpu time    0.0052: real time    0.0053
    CHARGE:  cpu time    1.3476: real time    1.3574
    MIXING:  cpu time    0.0018: real time    0.0018
    --------------------------------------------
      LOOP:  cpu time  119.3620: real time  120.2439

 eigenvalue-minimisations  : 19200
 total energy-change (2. order) : 0.1784065E-06  (-0.8339281E-07)
 number of electron     688.0000090 magnetization      -0.0000000
 augmentation part      282.2481264 magnetization      -0.0000000

 Broyden mixing:
  rms(total) = 0.56802E-02    rms(broyden)= 0.56802E-02
  rms(prec ) = 0.56972E-02
  weight for this iteration     100.00

 eigenvalues of (default mixing * dielectric matrix)
  average eigenvalue GAMMA=   0.8334
  1.3901  1.3901  0.5135  0.5135  0.3599

 Free energy of the ion-electron system (eV)
  ---------------------------------------------------
  alpha Z        PSCENC =      2365.61933805
  Ewald energy   TEWEN  =    -62596.37524449
  -Hartree energ DENC   =    -42874.14438756
  -exchange      EXHF   =         0.00000000
  -V(xc)+E(xc)   XCENC  =      3286.46493366
  PAW double counting   =    112181.62897598  -115873.87424078
  entropy T*S    EENTRO =         0.00000000
  eigenvalues    EBANDS =    -10836.33023862
  atomic energy  EATOM  =    114020.06510763
  Solvation  Ediel_sol  =         0.00000000
  ---------------------------------------------------
  free energy    TOTEN  =      -326.94575614 eV

  energy without entropy =     -326.94575614  energy(sigma->0) =     -326.94575614


--------------------------------------------------------------------------------------------------------




--------------------------------------- Iteration      1(  11)  ---------------------------------------


    POTLOK:  cpu time    0.1364: real time    0.1389
    SETDIJ:  cpu time    0.0129: real time    0.0130
     EDDAV:  cpu time  166.4763: real time  167.6196
 BZINTS: Fermi energy:  5.025975;688.000000 electrons
         Band energy:***********;  BLOECHL correction:  0.000000
       DOS:  cpu time    0.0052: real time    0.0052
    CHARGE:  cpu time    1.3441: real time    1.3533
    MIXING:  cpu time    0.0019: real time    0.0019
    --------------------------------------------
      LOOP:  cpu time  167.9767: real time  169.1318

 eigenvalue-minimisations  : 23040
 total energy-change (2. order) : 0.1273700E-05  (-0.2792672E-06)
 number of electron     688.0000090 magnetization      -0.0000000
 augmentation part      282.2493194 magnetization      -0.0000000

 Broyden mixing:
  rms(total) = 0.13115E-02    rms(broyden)= 0.13115E-02
  rms(prec ) = 0.13251E-02
  weight for this iteration     100.00

 eigenvalues of (default mixing * dielectric matrix)
  average eigenvalue GAMMA=   0.8825
  1.9163  1.2888  0.6120  0.6120  0.5329  0.3333

 Free energy of the ion-electron system (eV)
  ---------------------------------------------------
  alpha Z        PSCENC =      2365.61933805
  Ewald energy   TEWEN  =    -62596.37524449
  -Hartree energ DENC   =    -42874.16223301
  -exchange      EXHF   =         0.00000000
  -V(xc)+E(xc)   XCENC  =      3286.46299872
  PAW double counting   =    112173.86685607  -115866.06349946
  entropy T*S    EENTRO =         0.00000000
  eigenvalues    EBANDS =    -10836.35907837
  atomic energy  EATOM  =    114020.06510763
  Solvation  Ediel_sol  =         0.00000000
  ---------------------------------------------------
  free energy    TOTEN  =      -326.94575486 eV

  energy without entropy =     -326.94575486  energy(sigma->0) =     -326.94575486


--------------------------------------------------------------------------------------------------------




--------------------------------------- Iteration      1(  12)  ---------------------------------------


    POTLOK:  cpu time    0.1353: real time    0.1389
    SETDIJ:  cpu time    0.0132: real time    0.0133
     EDDAV:  cpu time  141.9301: real time  142.9447
 BZINTS: Fermi energy:  5.025971;688.000000 electrons
         Band energy:***********;  BLOECHL correction:  0.000000
       DOS:  cpu time    0.0051: real time    0.0051
    CHARGE:  cpu time    1.3451: real time    1.3533
    MIXING:  cpu time    0.0019: real time    0.0019
    --------------------------------------------
      LOOP:  cpu time  143.4307: real time  144.4573

 eigenvalue-minimisations  : 21504
 total energy-change (2. order) : 0.3237656E-06  (-0.7559635E-07)
 number of electron     688.0000090 magnetization      -0.0000000
 augmentation part      282.2500887 magnetization      -0.0000000

 Broyden mixing:
  rms(total) = 0.48694E-03    rms(broyden)= 0.48694E-03
  rms(prec ) = 0.49275E-03
  weight for this iteration     100.00

 eigenvalues of (default mixing * dielectric matrix)
  average eigenvalue GAMMA=   0.8578
  2.1813  1.0858  0.6354  0.6354  0.5608  0.5608  0.3453

 Free energy of the ion-electron system (eV)
  ---------------------------------------------------
  alpha Z        PSCENC =      2365.61933805
  Ewald energy   TEWEN  =    -62596.37524449
  -Hartree energ DENC   =    -42874.16363698
  -exchange      EXHF   =         0.00000000
  -V(xc)+E(xc)   XCENC  =      3286.46217537
  PAW double counting   =    112170.82571284  -115863.00412893
  entropy T*S    EENTRO =         0.00000000
  eigenvalues    EBANDS =    -10836.37507803
  atomic energy  EATOM  =    114020.06510763
  Solvation  Ediel_sol  =         0.00000000
  ---------------------------------------------------
  free energy    TOTEN  =      -326.94575454 eV

  energy without entropy =     -326.94575454  energy(sigma->0) =     -326.94575454


--------------------------------------------------------------------------------------------------------




--------------------------------------- Iteration      1(  13)  ---------------------------------------


    POTLOK:  cpu time    0.1368: real time    0.1399
    SETDIJ:  cpu time    0.0132: real time    0.0132
     EDDAV:  cpu time  142.8963: real time  143.9068
 BZINTS: Fermi energy:  5.025969;688.000000 electrons
         Band energy:***********;  BLOECHL correction:  0.000000
       DOS:  cpu time    0.0052: real time    0.0052
    --------------------------------------------
      LOOP:  cpu time  143.0514: real time  144.0651

 eigenvalue-minimisations  : 20992
 total energy-change (2. order) : 0.9400537E-08  (-0.3223796E-08)
 number of electron     688.0000090 magnetization      -0.0000000
 augmentation part      282.2500887 magnetization      -0.0000000

 Free energy of the ion-electron system (eV)
  ---------------------------------------------------
  alpha Z        PSCENC =      2365.61933805
  Ewald energy   TEWEN  =    -62596.37524449
  -Hartree energ DENC   =    -42874.16405762
  -exchange      EXHF   =         0.00000000
  -V(xc)+E(xc)   XCENC  =      3286.46218221
  PAW double counting   =    112170.93850581  -115863.11747064
  entropy T*S    EENTRO =         0.00000000
  eigenvalues    EBANDS =    -10836.37411547
  atomic energy  EATOM  =    114020.06510763
  Solvation  Ediel_sol  =         0.00000000
  ---------------------------------------------------
  free energy    TOTEN  =      -326.94575453 eV

  energy without entropy =     -326.94575453  energy(sigma->0) =     -326.94575453


--------------------------------------------------------------------------------------------------------




 average (electrostatic) potential at core
  the test charge radii are     0.9698  0.8297  0.9500
  (the norm of the test charge is              1.0000)
       1 -86.5777       2 -86.5777       3 -86.5777       4 -86.5777       5 -86.5777
       6 -86.5777       7 -86.5777       8 -86.5777       9 -86.6385      10 -86.6385
      11 -86.6385      12 -86.6385      13 -86.5055      14 -86.5055      15 -86.5055
      16 -86.5055      17 -86.5777      18 -86.5777      19 -86.5777      20 -86.5777
      21 -86.5777      22 -86.5777      23 -86.5777      24 -86.5777      25 -86.6385
      26 -86.6385      27 -86.6385      28 -86.6385      29 -86.5055      30 -86.5055
      31 -86.5055      32 -86.5055      33 -80.6561      34 -80.6561      35 -80.6561
      36 -80.6561      37 -80.6561      38 -80.6561      39 -80.6561      40 -80.6561
      41 -80.6561      42 -80.6561      43 -80.6561      44 -80.6561      45 -80.6561
      46 -80.6561      47 -80.6561      48 -80.6561      49 -80.1535      50 -80.1535
      51 -80.1535      52 -80.1535      53 -80.1535      54 -80.1535      55 -80.1535
      56 -80.1535      57 -80.1535      58 -80.1535      59 -80.1535      60 -80.1535
      61 -80.1535      62 -80.1535      63 -80.1535      64 -80.1535
 
 
 
 E-fermi :   5.0260     XC(G=0): -10.4946     alpha+bet :-10.5887


 spin component 1

 k-point     1 :       0.0000    0.0000    0.0000
  band No.  band energies     occupation 
      1     -64.2616      1.00000
      2     -64.2616      1.00000
      3     -64.2616      1.00000
      4     -64.2616      1.00000
      5     -64.2616      1.00000
      6     -64.2616      1.00000
      7     -64.2616      1.00000
      8     -64.2616      1.00000
      9     -64.2460      1.00000
     10     -64.2460      1.00000
     11     -64.2460      1.00000
     12     -64.2460      1.00000
     13     -64.2460      1.00000
     14     -64.2460      1.00000
     15     -64.2460      1.00000
     16     -64.2460      1.00000
     17     -64.2373      1.00000
     18     -64.2373      1.00000
     19     -64.2373      1.00000
     20     -64.2373      1.00000
     21     -64.2373      1.00000
     22     -64.2373      1.00000
     23     -64.2373      1.00000
     24     -64.2373      1.00000
     25     -64.2225      1.00000
     26     -64.2225      1.00000
     27     -64.2225      1.00000
     28     -64.2225      1.00000
     29     -64.2225      1.00000
     30     -64.2225      1.00000
     31     -64.2225      1.00000
     32     -64.2225      1.00000
     33     -64.2206      1.00000
     34     -64.2206      1.00000
     35     -64.2206      1.00000
     36     -64.2206      1.00000
     37     -64.2206      1.00000
     38     -64.2206      1.00000
     39     -64.2206      1.00000
     40     -64.2206      1.00000
     41     -64.2111      1.00000
     42     -64.2111      1.00000
     43     -64.2111      1.00000
     44     -64.2111      1.00000
     45     -64.2111      1.00000
     46     -64.2111      1.00000
     47     -64.2111      1.00000
     48     -64.2111      1.00000
     49     -51.8617      1.00000
     50     -51.8617      1.00000
     51     -51.8617      1.00000
     52     -51.8617      1.00000
     53     -51.8617      1.00000
     54     -51.8617      1.00000
     55     -51.8617      1.00000
     56     -51.8617      1.00000
     57     -51.7456      1.00000
     58     -51.7456      1.00000
     59     -51.7456      1.00000
     60     -51.7456      1.00000
     61     -51.7456      1.00000
     62     -51.7456      1.00000
     63     -51.7456      1.00000
     64     -51.7456      1.00000
     65     -51.7383      1.00000
     66     -51.7383      1.00000
     67     -51.7383      1.00000
     68     -51.7383      1.00000
     69     -51.7383      1.00000
     70     -51.7383      1.00000
     71     -51.7383      1.00000
     72     -51.7383      1.00000
     73     -47.6788      1.00000
     74     -47.6788      1.00000
     75     -47.6788      1.00000
     76     -47.6788      1.00000
     77     -47.6788      1.00000
     78     -47.6788      1.00000
     79     -47.6788      1.00000
     80     -47.6788      1.00000
     81     -47.6481      1.00000
     82     -47.6481      1.00000
     83     -47.6481      1.00000
     84     -47.6481      1.00000
     85     -47.6481      1.00000
     86     -47.6481      1.00000
     87     -47.6481      1.00000
     88     -47.6481      1.00000
     89     -47.6444      1.00000
     90     -47.6444      1.00000
     91     -47.6444      1.00000
     92     -47.6444      1.00000
     93     -47.6444      1.00000
     94     -47.6444      1.00000
     95     -47.6444      1.00000
     96     -47.6444      1.00000
     97      -9.0809      1.00000
     98      -8.4739      1.00000
     99      -8.4739      1.00000
    100      -8.4518      1.00000
    101      -8.4518      1.00000
    102      -8.4503      1.00000
    103      -8.4283      1.00000
    104      -8.1855      1.00000
    105      -8.1855      1.00000
    106      -8.1657      1.00000
    107      -8.1589      1.00000
    108      -8.1002      1.00000
    109      -8.0877      1.00000
    110      -8.0877      1.00000
    111      -8.0847      1.00000
    112      -8.0709      1.00000
    113      -8.0642      1.00000
    114      -8.0637      1.00000
    115      -8.0637      1.00000
    116      -7.9597      1.00000
    117      -7.9597      1.00000
    118      -7.9159      1.00000
    119      -7.9139      1.00000
    120      -7.7428      1.00000
    121      -7.7416      1.00000
    122      -7.7144      1.00000
    123      -7.6955      1.00000
    124      -7.6955      1.00000
    125      -7.6830      1.00000
    126      -7.6654      1.00000
    127      -7.6654      1.00000
    128      -7.6303      1.00000
    129      -2.0051      1.00000
    130      -2.0051      1.00000
    131      -1.9930      1.00000
    132      -1.9772      1.00000
    133      -1.9772      1.00000
    134      -1.9575      1.00000
    135      -1.9209      1.00000
    136      -1.9098      1.00000
    137      -1.9083      1.00000
    138      -1.8432      1.00000
    139      -1.8432      1.00000
    140      -1.8423      1.00000
    141      -1.8423      1.00000
    142      -1.8275      1.00000
    143      -1.8170      1.00000
    144      -1.8022      1.00000
    145      -1.7941      1.00000
    146      -1.7775      1.00000
    147      -1.7775      1.00000
    148      -1.7656      1.00000
    149      -1.7636      1.00000
    150      -1.7636      1.00000
    151      -1.7565      1.00000
    152      -1.7266      1.00000
    153      -1.7230      1.00000
    154      -1.7230      1.00000
    155      -1.7230      1.00000
    156      -1.7208      1.00000
    157      -1.7106      1.00000
    158      -1.6906      1.00000
    159      -1.6906      1.00000
    160      -1.6615      1.00000
    161      -1.6615      1.00000
    162      -1.6594      1.00000
    163      -1.6589      1.00000
    164      -1.6531      1.00000
    165      -1.6531      1.00000
    166      -1.6295      1.00000
    167      -1.6131      1.00000
    168      -1.6120      1.00000
    169      -1.0016      1.00000
    170      -0.9888      1.00000
    171      -0.7558      1.00000
    172      -0.7367      1.00000
    173      -0.7064      1.00000
    174      -0.4326      1.00000
    175      -0.2127      1.00000
    176      -0.2127      1.00000
    177      -0.1922      1.00000
    178      -0.1922      1.00000
    179      -0.1551      1.00000
    180      -0.1409      1.00000
    181      -0.0735      1.00000
    182      -0.0180      1.00000
    183      -0.0180      1.00000
    184       0.0026      1.00000
    185       0.0026      1.00000
    186       0.0988      1.00000
    187       0.1017      1.00000
    188       0.1211      1.00000
    189       0.1211      1.00000
    190       0.1476      1.00000
    191       0.1630      1.00000
    192       0.1630      1.00000
    193       0.2393      1.00000
    194       0.3295      1.00000
    195       0.3295      1.00000
    196       0.3306      1.00000
    197       0.3306      1.00000
    198       0.3583      1.00000
    199       0.3866      1.00000
    200       0.7217      1.00000
    201       0.7891      1.00000
    202       0.7908      1.00000
    203       0.7924      1.00000
    204       0.8286      1.00000
    205       0.8286      1.00000
    206       0.8450      1.00000
    207       0.8450      1.00000
    208       0.9112      1.00000
    209       0.9112      1.00000
    210       0.9352      1.00000
    211       0.9352      1.00000
    212       1.0433      1.00000
    213       1.0433      1.00000
    214       1.0841      1.00000
    215       1.0841      1.00000
    216       1.1526      1.00000
    217       1.1644      1.00000
    218       1.1652      1.00000
    219       1.1838      1.00000
    220       1.2255      1.00000
    221       1.2403      1.00000
    222       1.2403      1.00000
    223       1.2409      1.00000
    224       1.2663      1.00000
    225       1.2675      1.00000
    226       1.2675      1.00000
    227       1.2681      1.00000
    228       1.2914      1.00000
    229       1.3247      1.00000
    230       1.3280      1.00000
    231       1.3509      1.00000
    232       1.3514      1.00000
    233       1.3514      1.00000
    234       1.3534      1.00000
    235       1.3534      1.00000
    236       1.3820      1.00000
    237       1.3919      1.00000
    238       1.5994      1.00000
    239       1.6132      1.00000
    240       1.6184      1.00000
    241       1.6258      1.00000
    242       1.8361      1.00000
    243       1.8361      1.00000
    244       1.8507      1.00000
    245       1.8507      1.00000
    246       1.9055      1.00000
    247       1.9172      1.00000
    248       1.9395      1.00000
    249       1.9395      1.00000
    250       1.9415      1.00000
    251       1.9640      1.00000
    252       1.9651      1.00000
    253       1.9686      1.00000
    254       1.9686      1.00000
    255       2.1124      1.00000
    256       2.1497      1.00000
    257       2.1862      1.00000
    258       2.2512      1.00000
    259       2.2512      1.00000
    260       2.2752      1.00000
    261       2.2971      1.00000
    262       2.3106      1.00000
    263       2.3106      1.00000
    264       2.4434      1.00000
    265       2.6814      1.00000
    266       2.7753      1.00000
    267       2.7955      1.00000
    268       2.7955      1.00000
    269       2.8058      1.00000
    270       2.8058      1.00000
    271       2.8199      1.00000
    272       2.8212      1.00000
    273       2.8247      1.00000
    274       2.8247      1.00000
    275       2.8451      1.00000
    276       2.8451      1.00000
    277       2.8521      1.00000
    278       2.8569      1.00000
    279       2.8662      1.00000
    280       2.9359      1.00000
    281       2.9546      1.00000
    282       2.9546      1.00000
    283       2.9949      1.00000
    284       2.9949      1.00000
    285       3.0025      1.00000
    286       3.0287      1.00000
    287       3.0476      1.00000
    288       3.0739      1.00000
    289       3.1306      1.00000
    290       3.1330      1.00000
    291       3.2377      1.00000
    292       3.2410      1.00000
    293       3.2410      1.00000
    294       3.2541      1.00000
    295       3.2541      1.00000
    296       3.3074      1.00000
    297       3.3101      1.00000
    298       3.3330      1.00000
    299       3.4101      1.00000
    300       3.4101      1.00000
[...]
   -.407E+02 0.371E+02 -.704E+00   0.415E+02 -.373E+02 0.698E+00   -.802E+00 0.246E+00 0.610E-02   0.366E-03 0.679E-04 -.287E-04
   -.407E+02 0.371E+02 -.704E+00   0.415E+02 -.373E+02 0.698E+00   -.802E+00 0.246E+00 0.610E-02   0.367E-03 0.679E-04 -.283E-04
   -.407E+02 0.371E+02 -.704E+00   0.415E+02 -.373E+02 0.698E+00   -.802E+00 0.246E+00 0.610E-02   0.366E-03 0.667E-04 -.287E-04
   -.407E+02 0.371E+02 -.704E+00   0.415E+02 -.373E+02 0.698E+00   -.802E+00 0.246E+00 0.610E-02   0.367E-03 0.667E-04 -.283E-04
   0.407E+02 0.371E+02 0.704E+00   -.415E+02 -.373E+02 -.698E+00   0.802E+00 0.246E+00 -.609E-02   -.368E-03 0.160E-04 -.447E-04
   0.407E+02 0.371E+02 0.704E+00   -.415E+02 -.373E+02 -.698E+00   0.802E+00 0.246E+00 -.609E-02   -.368E-03 0.161E-04 -.447E-04
   0.407E+02 0.371E+02 0.704E+00   -.415E+02 -.373E+02 -.698E+00   0.802E+00 0.246E+00 -.609E-02   -.368E-03 0.160E-04 -.468E-04
   0.407E+02 0.371E+02 0.704E+00   -.415E+02 -.373E+02 -.698E+00   0.802E+00 0.246E+00 -.609E-02   -.368E-03 0.160E-04 -.468E-04
   0.107E-06 -.155E+02 0.479E-06   0.808E-06 0.162E+02 0.363E-05   -.165E-23 -.637E+00 0.000E+00   -.304E-06 0.429E-03 -.104E-05
   0.454E-07 -.155E+02 -.558E-06   0.344E-06 0.162E+02 -.400E-05   0.000E+00 -.637E+00 0.000E+00   0.108E-06 0.429E-03 0.108E-05
   0.107E-06 -.155E+02 0.479E-06   0.808E-06 0.162E+02 0.363E-05   0.199E-22 -.637E+00 0.000E+00   -.304E-06 0.430E-03 -.104E-05
   0.454E-07 -.155E+02 -.558E-06   0.344E-06 0.162E+02 -.400E-05   0.116E-22 -.637E+00 0.000E+00   0.108E-06 0.430E-03 0.108E-05
   -.212E-06 0.695E+02 -.166E-06   -.135E-05 -.706E+02 0.242E-06   0.414E-23 0.106E+01 -.132E-22   0.651E-06 -.354E-03 -.832E-07
   0.749E-07 0.695E+02 -.212E-06   0.763E-06 -.706E+02 -.931E-07   0.548E-23 0.106E+01 -.165E-23   -.512E-06 -.354E-03 0.577E-07
   -.212E-06 0.695E+02 -.166E-06   -.135E-05 -.706E+02 0.242E-06   0.827E-24 0.106E+01 0.265E-22   0.651E-06 -.354E-03 -.832E-07
   0.749E-07 0.695E+02 -.212E-06   0.763E-06 -.706E+02 -.931E-07   0.258E-23 0.106E+01 -.579E-23   -.512E-06 -.354E-03 0.576E-07
   0.662E+01 -.342E+02 0.241E+01   -.656E+01 0.329E+02 -.247E+01   -.622E-01 0.137E+01 0.611E-01   -.544E-04 0.834E-04 -.100E-03
   0.662E+01 -.342E+02 0.241E+01   -.656E+01 0.329E+02 -.247E+01   -.622E-01 0.137E+01 0.611E-01   -.549E-04 0.827E-04 -.103E-03
   0.662E+01 -.342E+02 0.241E+01   -.656E+01 0.329E+02 -.247E+01   -.622E-01 0.137E+01 0.611E-01   -.538E-04 0.836E-04 -.972E-04
   0.662E+01 -.342E+02 0.241E+01   -.656E+01 0.329E+02 -.247E+01   -.622E-01 0.137E+01 0.611E-01   -.542E-04 0.829E-04 -.999E-04
   -.662E+01 -.342E+02 -.241E+01   0.656E+01 0.329E+02 0.247E+01   0.622E-01 0.137E+01 -.611E-01   0.567E-04 0.840E-04 0.994E-04
   -.662E+01 -.342E+02 -.241E+01   0.656E+01 0.329E+02 0.247E+01   0.622E-01 0.137E+01 -.611E-01   0.523E-04 0.825E-04 0.103E-03
   -.662E+01 -.342E+02 -.241E+01   0.656E+01 0.329E+02 0.247E+01   0.622E-01 0.137E+01 -.611E-01   0.561E-04 0.843E-04 0.963E-04
   -.662E+01 -.342E+02 -.241E+01   0.656E+01 0.329E+02 0.247E+01   0.622E-01 0.137E+01 -.611E-01   0.516E-04 0.828E-04 0.100E-03
   0.662E+01 -.342E+02 0.241E+01   -.656E+01 0.329E+02 -.247E+01   -.623E-01 0.137E+01 0.610E-01   -.129E-04 0.910E-04 0.415E-04
   0.662E+01 -.342E+02 0.241E+01   -.656E+01 0.329E+02 -.247E+01   -.623E-01 0.137E+01 0.610E-01   -.192E-04 0.923E-04 0.376E-04
   0.662E+01 -.342E+02 0.241E+01   -.656E+01 0.329E+02 -.247E+01   -.623E-01 0.137E+01 0.610E-01   -.143E-04 0.861E-04 0.457E-04
   0.662E+01 -.342E+02 0.241E+01   -.656E+01 0.329E+02 -.247E+01   -.623E-01 0.137E+01 0.610E-01   -.207E-04 0.874E-04 0.418E-04
   -.662E+01 -.342E+02 -.241E+01   0.656E+01 0.329E+02 0.247E+01   0.623E-01 0.137E+01 -.610E-01   0.155E-04 0.916E-04 -.412E-04
   -.662E+01 -.342E+02 -.241E+01   0.656E+01 0.329E+02 0.247E+01   0.623E-01 0.137E+01 -.610E-01   0.166E-04 0.922E-04 -.374E-04
   -.662E+01 -.342E+02 -.241E+01   0.656E+01 0.329E+02 0.247E+01   0.623E-01 0.137E+01 -.610E-01   0.170E-04 0.867E-04 -.454E-04
   -.662E+01 -.342E+02 -.241E+01   0.656E+01 0.329E+02 0.247E+01   0.623E-01 0.137E+01 -.610E-01   0.181E-04 0.873E-04 -.417E-04
   -.917E+01 -.335E+02 0.447E+01   0.900E+01 0.317E+02 -.455E+01   0.176E+00 0.179E+01 0.829E-01   0.232E-03 -.828E-04 -.155E-03
   -.917E+01 -.335E+02 0.447E+01   0.900E+01 0.317E+02 -.455E+01   0.176E+00 0.179E+01 0.829E-01   0.228E-03 -.817E-04 -.152E-03
   -.917E+01 -.335E+02 0.447E+01   0.900E+01 0.317E+02 -.455E+01   0.176E+00 0.179E+01 0.829E-01   0.231E-03 -.874E-04 -.158E-03
   -.917E+01 -.335E+02 0.447E+01   0.900E+01 0.317E+02 -.455E+01   0.176E+00 0.179E+01 0.829E-01   0.227E-03 -.862E-04 -.155E-03
   0.917E+01 -.335E+02 -.447E+01   -.900E+01 0.317E+02 0.455E+01   -.176E+00 0.179E+01 -.829E-01   -.230E-03 -.823E-04 0.155E-03
   0.917E+01 -.335E+02 -.447E+01   -.900E+01 0.317E+02 0.455E+01   -.176E+00 0.179E+01 -.829E-01   -.230E-03 -.818E-04 0.153E-03
   0.917E+01 -.335E+02 -.447E+01   -.900E+01 0.317E+02 0.455E+01   -.176E+00 0.179E+01 -.829E-01   -.229E-03 -.869E-04 0.158E-03
   0.917E+01 -.335E+02 -.447E+01   -.900E+01 0.317E+02 0.455E+01   -.176E+00 0.179E+01 -.829E-01   -.229E-03 -.863E-04 0.156E-03
   -.917E+01 -.335E+02 0.447E+01   0.900E+01 0.317E+02 -.455E+01   0.176E+00 0.179E+01 0.829E-01   0.219E-03 -.532E-04 -.205E-03
   -.917E+01 -.335E+02 0.447E+01   0.900E+01 0.317E+02 -.455E+01   0.176E+00 0.179E+01 0.829E-01   0.220E-03 -.537E-04 -.202E-03
   -.917E+01 -.335E+02 0.447E+01   0.900E+01 0.317E+02 -.455E+01   0.176E+00 0.179E+01 0.829E-01   0.220E-03 -.532E-04 -.208E-03
   -.917E+01 -.335E+02 0.447E+01   0.900E+01 0.317E+02 -.455E+01   0.176E+00 0.179E+01 0.829E-01   0.221E-03 -.537E-04 -.205E-03
   0.917E+01 -.335E+02 -.447E+01   -.900E+01 0.317E+02 0.455E+01   -.176E+00 0.179E+01 -.829E-01   -.217E-03 -.528E-04 0.205E-03
   0.917E+01 -.335E+02 -.447E+01   -.900E+01 0.317E+02 0.455E+01   -.176E+00 0.179E+01 -.829E-01   -.222E-03 -.538E-04 0.202E-03
   0.917E+01 -.335E+02 -.447E+01   -.900E+01 0.317E+02 0.455E+01   -.176E+00 0.179E+01 -.829E-01   -.218E-03 -.527E-04 0.208E-03
   0.917E+01 -.335E+02 -.447E+01   -.900E+01 0.317E+02 0.455E+01   -.176E+00 0.179E+01 -.829E-01   -.223E-03 -.538E-04 0.205E-03
 -----------------------------------------------------------------------------------------------
   -.483E-04 -.578E+02 0.146E-03   0.149E-12 -.409E-12 0.624E-12   -.147E-14 0.578E+02 -.139E-16   -.169E-06 0.154E-02 -.139E-06
 
 
 POSITION                                       TOTAL-FORCE (eV/Angst)
 -----------------------------------------------------------------------------------
      1.46639      1.24528      1.30465        -0.000265     -0.000487      0.000113
      6.72436      1.24528      1.30465        -0.000265     -0.000487      0.000113
      1.46639      6.50824      1.30465        -0.000265     -0.000487      0.000113
      6.72436      6.50824      1.30465        -0.000265     -0.000487      0.000113
      4.06363      3.87676      1.28380         0.000264     -0.000485     -0.000115
      9.32160      3.87676      1.28380         0.000264     -0.000485     -0.000115
      4.06363      9.13972      1.28380         0.000264     -0.000485     -0.000115
      9.32160      9.13972      1.28380         0.000264     -0.000485     -0.000115
      2.26669      3.89298      9.05959         0.000000     -0.000081      0.000000
      7.52466      3.89298      9.05959         0.000000     -0.000081      0.000000
      2.26669      9.15595      9.05959         0.000000     -0.000081      0.000000
      7.52466      9.15595      9.05959         0.000000     -0.000081      0.000000
      4.89568      1.27864      9.05959         0.000000     -0.000123      0.000000
     10.15364      1.27864      9.05959         0.000000     -0.000123      0.000000
      4.89568      6.54160      9.05959         0.000000     -0.000123      0.000000
     10.15364      6.54160      9.05959         0.000000     -0.000123      0.000000
      1.97876      1.24528      6.46071         0.000265     -0.000487     -0.000113
      7.23673      1.24528      6.46071         0.000265     -0.000487     -0.000113
      1.97876      6.50824      6.46071         0.000265     -0.000487     -0.000113
      7.23673      6.50824      6.46071         0.000265     -0.000487     -0.000113
      4.63949      3.87676      6.48156        -0.000264     -0.000485      0.000115
      9.89745      3.87676      6.48156        -0.000264     -0.000485      0.000115
      4.63949      9.13972      6.48156        -0.000264     -0.000485      0.000115
      9.89745      9.13972      6.48156        -0.000264     -0.000485      0.000115
      4.35156      1.26150      3.88268         0.000000     -0.000081      0.000000
      9.60953      1.26150      3.88268         0.000000     -0.000081      0.000000
      4.35156      6.52446      3.88268         0.000000     -0.000081      0.000000
      9.60953      6.52446      3.88268         0.000000     -0.000081      0.000000
      1.72258      3.91012      3.88268         0.000000     -0.000121      0.000000
      6.98054      3.91012      3.88268         0.000000     -0.000121      0.000000
      1.72258      9.17309      3.88268         0.000000     -0.000121      0.000000
      6.98054      9.17309      3.88268         0.000000     -0.000121      0.000000
     11.03551      0.05909      5.17685        -0.000929     -0.000362      0.000214
      5.77755      0.05909      5.17685        -0.000929     -0.000362      0.000214
     11.03551      5.32206      5.17685        -0.000929     -0.000362      0.000214
      5.77755      5.32206      5.17685        -0.000929     -0.000362      0.000214
      2.92557      0.05909      2.58852         0.000929     -0.000362     -0.000214
      8.18354      0.05909      2.58852         0.000929     -0.000362     -0.000214
      2.92557      5.32206      2.58852         0.000929     -0.000362     -0.000214
      8.18354      5.32206      2.58852         0.000929     -0.000362     -0.000214
      3.69268      2.69057     10.35376        -0.000929     -0.000361      0.000214
      8.95065      2.69057     10.35376        -0.000929     -0.000361      0.000214
      3.69268      7.95354     10.35376        -0.000929     -0.000361      0.000214
      8.95065      7.95354     10.35376        -0.000929     -0.000361      0.000214
      0.84070      2.69057      7.76543         0.000929     -0.000361     -0.000214
      6.09867      2.69057      7.76543         0.000929     -0.000361     -0.000214
      0.84070      7.95354      7.76543         0.000929     -0.000361     -0.000214
      6.09867      7.95354      7.76543         0.000929     -0.000361     -0.000214
     10.50277      0.05705      0.00690        -0.000192      0.000946      0.000261
      5.24481      0.05705      0.00690        -0.000192      0.000946      0.000261
     10.50277      5.32002      0.00690        -0.000192      0.000946      0.000261
      5.24481      5.32002      0.00690        -0.000192      0.000946      0.000261
      3.45831      0.05705      7.75847         0.000192      0.000946     -0.000261
      8.71628      0.05705      7.75847         0.000192      0.000946     -0.000261
      3.45831      5.32002      7.75847         0.000192      0.000946     -0.000261
      8.71628      5.32002      7.75847         0.000192      0.000946     -0.000261
      3.15994      2.68853      5.18381        -0.000187      0.000951      0.000255
      8.41790      2.68853      5.18381        -0.000187      0.000951      0.000255
      3.15994      7.95150      5.18381        -0.000187      0.000951      0.000255
      8.41790      7.95150      5.18381        -0.000187      0.000951      0.000255
      0.28522      2.68853      2.58156         0.000187      0.000951     -0.000255
      5.54318      2.68853      2.58156         0.000187      0.000951     -0.000255
      0.28522      7.95150      2.58156         0.000187      0.000951     -0.000255
      5.54318      7.95150      2.58156         0.000187      0.000951     -0.000255
 -----------------------------------------------------------------------------------
    total drift:                               -0.000049     -0.014913      0.000146


--------------------------------------------------------------------------------------------------------



  FREE ENERGIE OF THE ION-ELECTRON SYSTEM (eV)
  ---------------------------------------------------
  free  energy   TOTEN  =      -326.94575453 eV

  energy  without entropy=     -326.94575453  energy(sigma->0) =     -326.94575453
 


--------------------------------------------------------------------------------------------------------


    POTLOK:  cpu time    0.1673: real time    0.1681


--------------------------------------------------------------------------------------------------------


 writing wavefunctions
     LOOP+:  cpu time 1997.2593: real time 2012.1865
    4ORBIT:  cpu time    0.0000: real time    0.0000
 


 total charge     
 
# of ion       s       p       d       tot
------------------------------------------
    1        1.315   2.406   0.000   3.721
    2        1.315   2.406   0.000   3.721
    3        1.315   2.406   0.000   3.721
    4        1.315   2.406   0.000   3.721
    5        1.315   2.406   0.000   3.721
    6        1.315   2.406   0.000   3.721
    7        1.315   2.406   0.000   3.721
    8        1.315   2.406   0.000   3.721
    9        1.317   2.401   0.000   3.718
   10        1.317   2.401   0.000   3.718
   11        1.317   2.401   0.000   3.718
   12        1.317   2.401   0.000   3.718
   13        1.313   2.412   0.000   3.724
   14        1.313   2.412   0.000   3.724
   15        1.313   2.412   0.000   3.724
   16        1.313   2.412   0.000   3.724
   17        1.315   2.406   0.000   3.721
   18        1.315   2.406   0.000   3.721
   19        1.315   2.406   0.000   3.721
   20        1.315   2.406   0.000   3.721
   21        1.315   2.406   0.000   3.721
   22        1.315   2.406   0.000   3.721
   23        1.315   2.406   0.000   3.721
   24        1.315   2.406   0.000   3.721
   25        1.317   2.401   0.000   3.718
   26        1.317   2.401   0.000   3.718
   27        1.317   2.401   0.000   3.718
   28        1.317   2.401   0.000   3.718
   29        1.313   2.412   0.000   3.724
   30        1.313   2.412   0.000   3.724
   31        1.313   2.412   0.000   3.724
   32        1.313   2.412   0.000   3.724
   33        0.258   6.200   8.917  15.376
   34        0.258   6.200   8.917  15.376
   35        0.258   6.200   8.917  15.376
   36        0.258   6.200   8.917  15.376
   37        0.258   6.200   8.917  15.376
   38        0.258   6.200   8.917  15.376
   39        0.258   6.200   8.917  15.376
   40        0.258   6.200   8.917  15.376
   41        0.258   6.200   8.917  15.376
   42        0.258   6.200   8.917  15.376
   43        0.258   6.200   8.917  15.376
   44        0.258   6.200   8.917  15.376
   45        0.258   6.200   8.917  15.376
   46        0.258   6.200   8.917  15.376
   47        0.258   6.200   8.917  15.376
   48        0.258   6.200   8.917  15.376
   49        0.348   6.347   5.824  12.519
   50        0.348   6.347   5.824  12.519
   51        0.348   6.347   5.824  12.519
   52        0.348   6.347   5.824  12.519
   53        0.348   6.347   5.824  12.519
   54        0.348   6.347   5.824  12.519
   55        0.348   6.347   5.824  12.519
   56        0.348   6.347   5.824  12.519
   57        0.348   6.347   5.824  12.519
   58        0.348   6.347   5.824  12.519
   59        0.348   6.347   5.824  12.519
   60        0.348   6.347   5.824  12.519
   61        0.348   6.347   5.824  12.519
   62        0.348   6.347   5.824  12.519
   63        0.348   6.347   5.824  12.519
   64        0.348   6.347   5.824  12.519
--------------------------------------------------
tot         51.765 277.764 235.850 565.379
 


 magnetization (x)
 
# of ion       s       p       d       tot
------------------------------------------
    1       -0.000  -0.025   0.000  -0.026
    2       -0.000  -0.025   0.000  -0.026
    3       -0.000  -0.025   0.000  -0.026
    4       -0.000  -0.025   0.000  -0.026
    5        0.000   0.025   0.000   0.026
    6        0.000   0.025   0.000   0.026
    7        0.000   0.025   0.000   0.026
    8        0.000   0.025   0.000   0.026
    9        0.000  -0.000   0.000  -0.000
   10       -0.000   0.000   0.000   0.000
   11        0.000  -0.000   0.000  -0.000
   12       -0.000   0.000   0.000   0.000
   13       -0.000   0.000   0.000   0.000
   14        0.000  -0.000   0.000  -0.000
   15       -0.000   0.000   0.000   0.000
   16        0.000  -0.000   0.000  -0.000
   17        0.000   0.025   0.000   0.026
   18        0.000   0.025   0.000   0.026
   19        0.000   0.025   0.000   0.026
   20        0.000   0.025   0.000   0.026
   21       -0.000  -0.025   0.000  -0.026
   22       -0.000  -0.025   0.000  -0.026
   23       -0.000  -0.025   0.000  -0.026
   24       -0.000  -0.025   0.000  -0.026
   25        0.000  -0.000   0.000  -0.000
   26       -0.000   0.000   0.000   0.000
   27        0.000  -0.000   0.000  -0.000
   28       -0.000   0.000   0.000   0.000
   29       -0.000   0.000   0.000   0.000
   30        0.000  -0.000   0.000  -0.000
   31       -0.000   0.000   0.000   0.000
   32        0.000  -0.000   0.000  -0.000
   33        0.000   0.001  -0.004  -0.002
   34        0.000   0.001  -0.004  -0.002
   35        0.000   0.001  -0.004  -0.002
   36        0.000   0.001  -0.004  -0.002
   37       -0.000  -0.001   0.004   0.002
   38       -0.000  -0.001   0.004   0.002
   39       -0.000  -0.001   0.004   0.002
   40       -0.000  -0.001   0.004   0.002
   41        0.000   0.001  -0.004  -0.002
   42        0.000   0.001  -0.004  -0.002
   43        0.000   0.001  -0.004  -0.002
   44        0.000   0.001  -0.004  -0.002
   45       -0.000  -0.001   0.004   0.002
   46       -0.000  -0.001   0.004   0.002
   47       -0.000  -0.001   0.004   0.002
   48       -0.000  -0.001   0.004   0.002
   49        0.020   0.054   3.665   3.739
   50        0.020   0.054   3.665   3.739
   51        0.020   0.054   3.665   3.739
   52        0.020   0.054   3.665   3.739
   53       -0.020  -0.054  -3.665  -3.739
   54       -0.020  -0.054  -3.665  -3.739
   55       -0.020  -0.054  -3.665  -3.739
   56       -0.020  -0.054  -3.665  -3.739
   57        0.020   0.054   3.665   3.739
   58        0.020   0.054   3.665   3.739
   59        0.020   0.054   3.665   3.739
   60        0.020   0.054   3.665   3.739
   61       -0.020  -0.054  -3.665  -3.739
   62       -0.020  -0.054  -3.665  -3.739
   63       -0.020  -0.054  -3.665  -3.739
   64       -0.020  -0.054  -3.665  -3.739
--------------------------------------------------
tot          0.000  -0.000   0.000   0.000
 
 BZINTS: Fermi energy:  5.025969;688.000000 electrons
         Band energy:***********;  BLOECHL correction:  0.000000

 total amount of memory used by VASP MPI-rank0   348353. kBytes
=======================================================================

   base      :      30000. kBytes
   nonl-proj :     216760. kBytes
   fftplans  :       4588. kBytes
   grid      :      69719. kBytes
   one-center:       1990. kBytes
   wavefun   :      25296. kBytes
 
  
  
 General timing and accounting informations for this job:
 ========================================================
  
                  Total CPU time used (sec):     2056.344
                            User time (sec):     2045.707
                          System time (sec):       10.637
                         Elapsed time (sec):     2072.851
  
                   Maximum memory used (kb):      712372.
                   Average memory used (kb):           0.
  
                          Minor page faults:       388248
                          Major page faults:         5763
                 Voluntary context switches:         7298
