 vasp.5.4.4.18Apr17-6-g9f103f2a35 (build Oct 30 2023 17:30:16) complex          
  
 executed on             LinuxIFC date 2024.06.29  00:49:03
 running on  256 total cores
 distrk:  each k-point on  256 cores,    1 groups
 distr:  one band on NCORES_PER_BAND=   1 cores,  256 groups


--------------------------------------------------------------------------------------------------------


 INCAR:
 POTCAR:    PAW_PBE S 06Sep2000                   
 POTCAR:     PAW_PBE Cu_pv 06Sep2000              
 POTCAR:     PAW_PBE Fe_pv 02Aug2007              

 ----------------------------------------------------------------------------- 
|                                                                             |
|           W    W    AA    RRRRR   N    N  II  N    N   GGGG   !!!           |
|           W    W   A  A   R    R  NN   N  II  NN   N  G    G  !!!           |
|           W    W  A    A  R    R  N N  N  II  N N  N  G       !!!           |
|           W WW W  AAAAAA  RRRRR   N  N N  II  N  N N  G  GGG   !            |
|           WW  WW  A    A  R   R   N   NN  II  N   NN  G    G                |
|           W    W  A    A  R    R  N    N  II  N    N   GGGG   !!!           |
|                                                                             |
|      For optimal performance we recommend to set                            |
|        NCORE= 4 - approx SQRT( number of cores)                             |
|      NCORE specifies how many cores store one orbital (NPAR=cpu/NCORE).     |
|      This setting can  greatly improve the performance of VASP for DFT.     |
|      The default,   NCORE=1            might be grossly inefficient         |
|      on modern multi-core architectures or massively parallel machines.     |
|      Do your own testing !!!!                                               |
|      Unfortunately you need to use the default for GW and RPA calculations. |
|      (for HF NCORE is supported but not extensively tested yet)             |
|                                                                             |
 ----------------------------------------------------------------------------- 

 POTCAR:    PAW_PBE S 06Sep2000                   
   SHA256 =  0fc7481fb0695f01bdc6462160264c5c84044ae9ec85a907d398b887a2bc3132 S/
   COPYR  = (c) Copyright 06Sep2000 Georg Kresse                                
   COPYR  = This file is part of the software VASP. Any use, copying, and all ot
   COPYR  = If you do not have a valid VASP license, you may not use, copy or di
   VRHFIN =S : s2p4                                                             
   LEXCH  = PE                                                                  
   EATOM  =   276.8230 eV,   20.3459 Ry                                         
                                                                                
   TITEL  = PAW_PBE S 06Sep2000                                                 
   LULTRA =        F    use ultrasoft PP ?                                      
   IUNSCR =        1    unscreen: 0-lin 1-nonlin 2-no                           
   RPACOR =    1.500    partial core radius                                     
   POMASS =   32.066; ZVAL   =    6.000    mass and valenz                      
   RCORE  =    1.900    outmost cutoff radius                                   
   RWIGS  =    2.200; RWIGS  =    1.164    wigner-seitz radius (au A)           
   ENMAX  =  258.689; ENMIN  =  194.016 eV                                      
   ICORE  =        2    local potential                                         
   LCOR   =        T    correct aug charges                                     
   LPAW   =        T    paw PP                                                  
   EAUG   =  335.092                                                            
   DEXC   =    0.000                                                            
   RMAX   =    1.942    core radius for proj-oper                               
   RAUG   =    1.300    factor for augmentation sphere                          
   RDEP   =    1.954    radius for radial grids                                 
   RDEPT  =    1.744    core radius for aug-charge                              
                                                                                
   Atomic configuration                                                         
    6 entries                                                                   
     n  l   j            E        occ.                                          
     1  0  0.50     -2405.8406   2.0000                                         
     2  0  0.50      -211.7007   2.0000                                         
     2  1  1.50      -156.4958   6.0000                                         
     3  0  0.50       -17.2562   2.0000                                         
     3  1  0.50        -7.0085   4.0000                                         
     3  2  1.50        -6.8029   0.0000                                         
   Description                                                                  
     l       E           TYP  RCUT    TYP  RCUT                                 
     0    -17.2561641     23  1.900                                             
     0    -15.8743224     23  1.900                                             
     1     -7.0085400     23  1.900                                             
     1     -2.7779785     23  1.900                                             
     2     -6.8029130     23  1.900                                             
  local pseudopotential read in
  partial core-charges read in
  partial kinetic energy density read in
  atomic valenz-charges read in
  non local Contribution for L=           0  read in
    real space projection operators read in
  non local Contribution for L=           0  read in
    real space projection operators read in
  non local Contribution for L=           1  read in
    real space projection operators read in
  non local Contribution for L=           1  read in
    real space projection operators read in
    PAW grid and wavefunctions read in
 
   number of l-projection  operators is LMAX  =           4
   number of lm-projection operators is LMMAX =           8
 
 POTCAR:     PAW_PBE Cu_pv 06Sep2000              
   SHA256 =  cb7b504e2ea725fe1f25c85a9ac77d4012ce94cd394135b722c4e25ec297f1cb Cu
   COPYR  = (c) Copyright 06Sep2000 Georg Kresse                                
   COPYR  = This file is part of the software VASP. Any use, copying, and all ot
   COPYR  = If you do not have a valid VASP license, you may not use, copy or di
   VRHFIN =Cu: d10 p1                                                           
   LEXCH  = PE                                                                  
   EATOM  =  4120.1201 eV,  302.8203 Ry                                         
                                                                                
   TITEL  = PAW_PBE Cu_pv 06Sep2000                                             
   LULTRA =        F    use ultrasoft PP ?                                      
   IUNSCR =        1    unscreen: 0-lin 1-nonlin 2-no                           
   RPACOR =    1.500    partial core radius                                     
   POMASS =   63.546; ZVAL   =   17.000    mass and valenz                      
   RCORE  =    2.000    outmost cutoff radius                                   
   RWIGS  =    2.000; RWIGS  =    1.058    wigner-seitz radius (au A)           
   ENMAX  =  368.648; ENMIN  =  276.486 eV                                      
   RCLOC  =    1.304    cutoff for local pot                                    
   LCOR   =        T    correct aug charges                                     
   LPAW   =        T    paw PP                                                  
   EAUG   =  758.233                                                            
   DEXC   =    0.000                                                            
   RMAX   =    2.046    core radius for proj-oper                               
   RAUG   =    1.300    factor for augmentation sphere                          
   RDEP   =    2.025    radius for radial grids                                 
   RDEPT  =    1.558    core radius for aug-charge                              
                                                                                
   Atomic configuration                                                         
    8 entries                                                                   
     n  l   j            E        occ.                                          
     1  0  0.50     -8850.2467   2.0000                                         
     2  0  0.50     -1062.3498   2.0000                                         
     2  1  1.50      -916.8226   6.0000                                         
     3  0  0.50      -114.6929   2.0000                                         
     3  1  1.50       -72.1325   6.0000                                         
     3  2  2.50        -5.0394  10.0000                                         
     4  0  0.50        -4.6097   1.0000                                         
     4  3  2.50        -1.3606   0.0000                                         
   Description                                                                  
     l       E           TYP  RCUT    TYP  RCUT                                 
     1    -72.1324777     23  1.700                                             
     1     -1.3605826     23  1.700                                             
     2     -5.0393776     23  2.000                                             
     2     -6.3999602     23  2.000                                             
     0     -4.6097062     23  1.800                                             
     0     14.1620818     23  1.800                                             
  local pseudopotential read in
  partial core-charges read in
  partial kinetic energy density read in
  atomic valenz-charges read in
  non local Contribution for L=           1  read in
    real space projection operators read in
  non local Contribution for L=           1  read in
    real space projection operators read in
  non local Contribution for L=           2  read in
    real space projection operators read in
  non local Contribution for L=           2  read in
    real space projection operators read in
  non local Contribution for L=           0  read in
    real space projection operators read in
  non local Contribution for L=           0  read in
    real space projection operators read in
    PAW grid and wavefunctions read in
 
   number of l-projection  operators is LMAX  =           6
   number of lm-projection operators is LMMAX =          18
 
 POTCAR:     PAW_PBE Fe_pv 02Aug2007              
   SHA256 =  5d22e414b1f82158bf2c7ecb8b97b28fd0923e48cadc1c3bf74d524558f5dd32 Fe
   COPYR  = (c) Copyright 02Aug2007 Georg Kresse                                
   COPYR  = This file is part of the software VASP. Any use, copying, and all ot
   COPYR  = If you do not have a valid VASP license, you may not use, copy or di
   VRHFIN =Fe:  3pd7s1                                                          
   LEXCH  = PE                                                                  
   EATOM  =  2457.4239 eV,  180.6156 Ry                                         
                                                                                
   TITEL  = PAW_PBE Fe_pv 02Aug2007                                             
   LULTRA =        F    use ultrasoft PP ?                                      
   IUNSCR =        1    unscreen: 0-lin 1-nonlin 2-no                           
   RPACOR =    1.750    partial core radius                                     
   POMASS =   55.847; ZVAL   =   14.000    mass and valenz                      
   RCORE  =    2.200    outmost cutoff radius                                   
   RWIGS  =    2.200; RWIGS  =    1.164    wigner-seitz radius (au A)           
   ENMAX  =  293.238; ENMIN  =  219.928 eV                                      
   ICORE  =        3    local potential                                         
   LCOR   =        T    correct aug charges                                     
   LPAW   =        T    paw PP                                                  
   EAUG   =  578.342                                                            
   DEXC   =    0.000                                                            
   RMAX   =    2.249    core radius for proj-oper                               
   RAUG   =    1.300    factor for augmentation sphere                          
   RDEP   =    2.296    radius for radial grids                                 
   RDEPT  =    1.766    core radius for aug-charge                              
                                                                                
   Atomic configuration                                                         
    8 entries                                                                   
     n  l   j            E        occ.                                          
     1  0  0.50     -6993.8440   2.0000                                         
     2  0  0.50      -814.6047   2.0000                                         
     2  1  1.50      -693.3689   6.0000                                         
     3  0  0.50       -89.4732   2.0000                                         
     3  1  1.50       -55.6373   6.0000                                         
     3  2  2.50        -3.8151   7.0000                                         
     4  0  0.50        -4.2551   1.0000                                         
     4  3  2.50        -1.3606   0.0000                                         
   Description                                                                  
     l       E           TYP  RCUT    TYP  RCUT                                 
     1    -55.6372668     23  2.000                                             
     1     -5.4423304     23  2.000                                             
     2     -3.8151096     23  2.200                                             
     2     -5.1756922     23  2.200                                             
     0     -4.2550951     23  2.200                                             
     0     27.2116520     23  2.200                                             
     3     -1.3605826     23  2.200                                             
  local pseudopotential read in
  partial core-charges read in
  partial kinetic energy density read in
  atomic valenz-charges read in
  non local Contribution for L=           1  read in
    real space projection operators read in
  non local Contribution for L=           1  read in
    real space projection operators read in
  non local Contribution for L=           2  read in
    real space projection operators read in
  non local Contribution for L=           2  read in
    real space projection operators read in
  non local Contribution for L=           0  read in
    real space projection operators read in
  non local Contribution for L=           0  read in
    real space projection operators read in
    PAW grid and wavefunctions read in
 
   number of l-projection  operators is LMAX  =           6
   number of lm-projection operators is LMMAX =          18
 

 ----------------------------------------------------------------------------- 
|                                                                             |
|  ADVICE TO THIS USER RUNNING 'VASP/VAMP'   (HEAR YOUR MASTER'S VOICE ...):  |
|                                                                             |
|      You have a (more or less) 'large supercell' and for larger cells       |
|      it might be more efficient to use real space projection opertators     |
|      So try LREAL= Auto  in the INCAR   file.                               |
|      Mind:          For very  accurate calculation you might also keep the  |
|      reciprocal projection scheme          (i.e. LREAL=.FALSE.)             |
|                                                                             |
 ----------------------------------------------------------------------------- 


 ----------------------------------------------------------------------------- 
|                                                                             |
|  ADVICE TO THIS USER RUNNING 'VASP/VAMP'   (HEAR YOUR MASTER'S VOICE ...):  |
|                                                                             |
|      You enforced a specific xc-type in the INCAR file,                     |
|      a different type was found on the POTCAR file                          |
|          I HOPE YOU KNOW, WHAT YOU ARE  DOING                               |
|                                                                             |
 ----------------------------------------------------------------------------- 

  PAW_PBE S 06Sep2000                   :
 energy of atom  1       EATOM= -276.8230
 kinetic energy error for atom=    0.0007 (will be added to EATOM!!)
   PAW_PBE Cu_pv 06Sep2000              :
 energy of atom  2       EATOM=-4120.1201
 kinetic energy error for atom=    0.0094 (will be added to EATOM!!)
   PAW_PBE Fe_pv 02Aug2007              :
 energy of atom  3       EATOM=-2457.4239
 kinetic energy error for atom=    0.0025 (will be added to EATOM!!)
 
 
 POSCAR: Fe16 Cu16 S32                           
  positions in direct lattice
  No initial velocities read in
 exchange correlation table for  LEXCH =       14
   RHO(1)=    0.500       N(1)  =     2000
   RHO(2)=  100.500       N(2)  =     4000
 


--------------------------------------------------------------------------------------------------------


 ion  position               nearest neighbor table
   1  0.126  0.125  0.122-  37 2.26  41 2.27  61 2.27  49 2.28
   2  0.626  0.125  0.122-  38 2.26  42 2.27  62 2.27  50 2.28
   3  0.126  0.625  0.122-  39 2.26  43 2.27  63 2.27  51 2.28
   4  0.626  0.625  0.122-  40 2.26  44 2.27  64 2.27  52 2.28
   5  0.374  0.375  0.122-  39 2.26  41 2.27  62 2.27  52 2.28
   6  0.874  0.375  0.122-  40 2.26  42 2.27  61 2.27  51 2.28
   7  0.374  0.875  0.122-  37 2.26  43 2.27  64 2.27  50 2.28
   8  0.874  0.875  0.122-  38 2.26  44 2.27  63 2.27  49 2.28
   9  0.125  0.374  0.872-  41 2.26  45 2.27  51 2.27  55 2.28
  10  0.625  0.374  0.872-  42 2.26  46 2.27  52 2.27  56 2.28
  11  0.125  0.874  0.872-  43 2.26  47 2.27  49 2.27  53 2.28
  12  0.625  0.874  0.872-  44 2.26  48 2.27  50 2.27  54 2.28
  13  0.375  0.126  0.872-  41 2.26  46 2.27  50 2.27  53 2.28
  14  0.875  0.126  0.872-  42 2.26  45 2.27  49 2.27  54 2.28
  15  0.375  0.626  0.872-  43 2.26  48 2.27  52 2.27  55 2.28
  16  0.875  0.626  0.872-  44 2.26  47 2.27  51 2.27  56 2.28
  17  0.124  0.125  0.622-  45 2.26  33 2.27  53 2.27  57 2.28
  18  0.624  0.125  0.622-  46 2.26  34 2.27  54 2.27  58 2.28
  19  0.124  0.625  0.622-  47 2.26  35 2.27  55 2.27  59 2.28
  20  0.624  0.625  0.622-  48 2.26  36 2.27  56 2.27  60 2.28
  21  0.376  0.375  0.622-  46 2.26  36 2.27  55 2.27  57 2.28
  22  0.876  0.375  0.622-  45 2.26  35 2.27  56 2.27  58 2.28
  23  0.376  0.875  0.622-  48 2.26  34 2.27  53 2.27  59 2.28
  24  0.876  0.875  0.622-  47 2.26  33 2.27  54 2.27  60 2.28
  25  0.375  0.124  0.372-  34 2.26  37 2.27  57 2.27  62 2.28
  26  0.875  0.124  0.372-  33 2.26  38 2.27  58 2.27  61 2.28
  27  0.375  0.624  0.372-  36 2.26  39 2.27  59 2.27  64 2.28
  28  0.875  0.624  0.372-  35 2.26  40 2.27  60 2.27  63 2.28
  29  0.125  0.376  0.372-  35 2.26  39 2.27  57 2.27  61 2.28
  30  0.625  0.376  0.372-  36 2.26  40 2.27  58 2.27  62 2.28
  31  0.125  0.876  0.372-  33 2.26  37 2.27  59 2.27  63 2.28
  32  0.625  0.876  0.372-  34 2.26  38 2.27  60 2.27  64 2.28
  33  0.000  0.000  0.503-  26 2.26  31 2.26  17 2.27  24 2.27
  34  0.500  0.000  0.503-  25 2.26  32 2.26  18 2.27  23 2.27
  35  0.000  0.500  0.503-  28 2.26  29 2.26  19 2.27  22 2.27
  36  0.500  0.500  0.503-  27 2.26  30 2.26  20 2.27  21 2.27
  37  0.250  0.000  0.253-   1 2.26   7 2.26  25 2.27  31 2.27
  38  0.750  0.000  0.253-   2 2.26   8 2.26  26 2.27  32 2.27
  39  0.250  0.500  0.253-   3 2.26   5 2.26  27 2.27  29 2.27
  40  0.750  0.500  0.253-   4 2.26   6 2.26  28 2.27  30 2.27
  41  0.250  0.250  0.003-   9 2.26  13 2.26   1 2.27   5 2.27
  42  0.750  0.250  0.003-  10 2.26  14 2.26   2 2.27   6 2.27
  43  0.250  0.750  0.003-  11 2.26  15 2.26   3 2.27   7 2.27
  44  0.750  0.750  0.003-  12 2.26  16 2.26   4 2.27   8 2.27
  45  0.000  0.250  0.753-  17 2.26  22 2.26   9 2.27  14 2.27
  46  0.500  0.250  0.753-  18 2.26  21 2.26  10 2.27  13 2.27
  47  0.000  0.750  0.753-  19 2.26  24 2.26  11 2.27  16 2.27
  48  0.500  0.750  0.753-  20 2.26  23 2.26  12 2.27  15 2.27
  49  0.000  0.000  0.003-  11 2.27  14 2.27   1 2.28   8 2.28
  50  0.500  0.000  0.003-  12 2.27  13 2.27   2 2.28   7 2.28
  51  0.000  0.500  0.003-   9 2.27  16 2.27   3 2.28   6 2.28
  52  0.500  0.500  0.003-  10 2.27  15 2.27   4 2.28   5 2.28
  53  0.250  0.000  0.753-  17 2.27  23 2.27  11 2.28  13 2.28
  54  0.750  0.000  0.753-  18 2.27  24 2.27  12 2.28  14 2.28
  55  0.250  0.500  0.753-  19 2.27  21 2.27   9 2.28  15 2.28
  56  0.750  0.500  0.753-  20 2.27  22 2.27  10 2.28  16 2.28
  57  0.250  0.250  0.503-  25 2.27  29 2.27  17 2.28  21 2.28
  58  0.750  0.250  0.503-  26 2.27  30 2.27  18 2.28  22 2.28
  59  0.250  0.750  0.503-  27 2.27  31 2.27  19 2.28  23 2.28
  60  0.750  0.750  0.503-  28 2.27  32 2.27  20 2.28  24 2.28
  61  0.000  0.250  0.253-   1 2.27   6 2.27  26 2.28  29 2.28
  62  0.500  0.250  0.253-   2 2.27   5 2.27  25 2.28  30 2.28
  63  0.000  0.750  0.253-   3 2.27   8 2.27  28 2.28  31 2.28
  64  0.500  0.750  0.253-   4 2.27   7 2.27  27 2.28  32 2.28
 
  LATTYP: Found a base centered orthorhombic cell.
 ALAT       =    14.4659523457
 B/A-ratio  =     1.0537604313
 C/A-ratio  =     0.7206233472
  
  Lattice vectors:
  
 A1 = (  10.5039300000,   0.2749570000,   0.0000000000)
 A2 = (  -0.2749570000, -10.5039300000,   0.0000000000)
 A3 = (   0.0000000000,   0.0000000000, -10.4245030000)


Analysis of symmetry for initial positions (statically):
=====================================================================
 Subroutine PRICEL returns following result:
 
  LATTYP: Found a face centered orthorhombic cell.
 ALAT       =     7.2329761729
 B/A-ratio  =     1.0537604313
 C/A-ratio  =     1.4412466944
  
  Lattice vectors:
  
 A1 = (  -2.6947217500,  -2.6947217500,   5.2122515000)
 A2 = (  -2.5572432500,   2.5572432500,   5.2122515000)
 A3 = (  -5.2519650000,  -0.1374785000,  -0.0000000000)
 
   8 primitive cells build up your supercell.
 

 Routine SETGRP: Setting up the symmetry group for a 
 base centered orthorhombic supercell.


 Subroutine GETGRP returns: Found  4 space group operations
 (whereof  2 operations were pure point group operations)
 out of a pool of  8 trial point group operations.


The static configuration has the point symmetry C_2 .
 The point group associated with its full space group is C_2v.


Analysis of symmetry for dynamics (positions and initial velocities):
=====================================================================
 Subroutine PRICEL returns following result:
 
  LATTYP: Found a face centered orthorhombic cell.
 ALAT       =     7.2329761729
 B/A-ratio  =     1.0537604313
 C/A-ratio  =     1.4412466944
  
  Lattice vectors:
  
 A1 = (  -2.6947217500,  -2.6947217500,   5.2122515000)
 A2 = (  -2.5572432500,   2.5572432500,   5.2122515000)
 A3 = (  -5.2519650000,  -0.1374785000,  -0.0000000000)
 
   8 primitive cells build up your supercell.
 

 Routine SETGRP: Setting up the symmetry group for a 
 base centered orthorhombic supercell.


 Subroutine GETGRP returns: Found  4 space group operations
 (whereof  2 operations were pure point group operations)
 out of a pool of  8 trial point group operations.


The dynamic configuration has the point symmetry C_2 .
 The point group associated with its full space group is C_2v.


Analysis of structural, dynamic, and magnetic symmetry:
=====================================================================
 Subroutine PRICEL returns following result:
 
  LATTYP: Found a face centered orthorhombic cell.
 ALAT       =     7.2329761729
 B/A-ratio  =     1.0537604313
 C/A-ratio  =     1.4412466944
  
  Lattice vectors:
  
 A1 = (  -2.6947217500,  -2.6947217500,   5.2122515000)
 A2 = (  -2.5572432500,   2.5572432500,   5.2122515000)
 A3 = (  -5.2519650000,  -0.1374785000,  -0.0000000000)
 
   8 primitive cells build up your supercell.
 

 Routine SETGRP: Setting up the symmetry group for a 
 base centered orthorhombic supercell.


 Subroutine GETGRP returns: Found  4 space group operations
 (whereof  2 operations were pure point group operations)
 out of a pool of  8 trial point group operations.


The magnetic configuration has the point symmetry C_2 .
 The point group associated with its full space group is C_2v.


 Subroutine INISYM returns: Found  4 space group operations
 (whereof  2 operations are pure point group operations),
 and found     8 'primitive' translations

 
 
 KPOINTS: Automatic mesh                          

Automatic generation of k-mesh.
Space group operators:
 irot       det(A)        alpha          n_x          n_y          n_z        tau_x        tau_y        tau_z
    1     1.000000     0.000000     1.000000     0.000000     0.000000     0.000000     0.000000     0.000000
    2     1.000000   180.000000     0.000000     0.000000     1.000000     0.000000     0.000000     0.000000
    3    -1.000000   180.000000     0.707107     0.707107     0.000000    -0.750000    -0.000000     0.750000
    4    -1.000000   180.000000     0.707107    -0.707107     0.000000    -0.750000    -0.000000     0.750000
 
 Subroutine IBZKPT returns following result:
 ===========================================
 
 Found      6 irreducible k-points:
 
 Following reciprocal coordinates:
            Coordinates               Weight
  0.000000  0.000000  0.000000      1.000000
  0.500000  0.000000  0.000000      2.000000
  0.500000  0.500000  0.000000      1.000000
  0.000000  0.000000  0.500000      1.000000
  0.500000  0.000000  0.500000      2.000000
  0.500000  0.500000  0.500000      1.000000
 
 Following cartesian coordinates:
            Coordinates               Weight
  0.000000  0.000000  0.000000      1.000000
  0.047634 -0.001247  0.000000      2.000000
  0.046387  0.046387  0.000000      1.000000
  0.000000  0.000000  0.047964      1.000000
  0.047634 -0.001247  0.047964      2.000000
  0.046387  0.046387  0.047964      1.000000
 
 TETIRR: Found     12 inequivalent tetrahedra from       48
 
 Subroutine IBZKPT_HF returns following result:
 ==============================================
 
 Found      8 k-points in 1st BZ
 the following      8 k-points will be used (e.g. in the exchange kernel)
 Following reciprocal coordinates:   # in IRBZ
  0.000000  0.000000  0.000000    0.12500000   1 t-inv F
  0.500000  0.000000  0.000000    0.12500000   2 t-inv F
  0.500000  0.500000  0.000000    0.12500000   3 t-inv F
  0.000000  0.000000  0.500000    0.12500000   4 t-inv F
  0.500000  0.000000  0.500000    0.12500000   5 t-inv F
  0.500000  0.500000  0.500000    0.12500000   6 t-inv F
  0.000000 -0.500000  0.000000    0.12500000   2 t-inv F spinflp
  0.000000 -0.500000  0.500000    0.12500000   5 t-inv F spinflp


--------------------------------------------------------------------------------------------------------




 Dimension of arrays:
   k-points           NKPTS =      6   k-points in BZ     NKDIM =      6   number of bands    NBANDS=    512
   number of dos      NEDOS =    301   number of ions     NIONS =     64
   non local maximal  LDIM  =      6   non local SUM 2l+1 LMDIM =     18
   total plane-waves  NPLWV = 829440
   max r-space proj   IRMAX =      1   max aug-charges    IRDMAX=  22932
   dimension x,y,z NGX =    96 NGY =   96 NGZ =   90
   dimension x,y,z NGXF=   192 NGYF=  192 NGZF=  180
   support grid    NGXF=   192 NGYF=  192 NGZF=  180
   ions per type =              32  16  16
   NGX,Y,Z   is equivalent  to a cutoff of  15.19, 15.19, 14.35 a.u.
   NGXF,Y,Z  is equivalent  to a cutoff of  30.38, 30.38, 28.71 a.u.

 SYSTEM =  CuFeS2                                  
 POSCAR =  Fe16 Cu16 S32                           

 Startparameter for this run:
   NWRITE =      2    write-flag & timer
   PREC   = accura    normal or accurate (medium, high low for compatibility)
   ISTART =      0    job   : 0-new  1-cont  2-samecut
   ICHARG =      1    charge: 1-file 2-atom 10-const
   ISPIN  =      2    spin polarized calculation?
   LNONCOLLINEAR =      F non collinear calculations
   LSORBIT =      F    spin-orbit coupling
   INIWAV =      1    electr: 0-lowe 1-rand  2-diag
   LASPH  =      F    aspherical Exc in radial PAW
   METAGGA=      F    non-selfconsistent MetaGGA calc.

 Electronic Relaxation 1
   ENCUT  =  700.0 eV  51.45 Ry    7.17 a.u.  22.67 22.67 22.49*2*pi/ulx,y,z
   ENINI  =  700.0     initial cutoff
   ENAUG  =  758.2 eV  augmentation charge cutoff
   NELM   =    500;   NELMIN=  2; NELMDL=  0     # of ELM steps 
   EDIFF  = 0.1E-07   stopping-criterion for ELM
   LREAL  =      F    real-space projection
   NLSPLINE    = F    spline interpolate recip. space projectors
   LCOMPAT=      F    compatible to vasp.4.4
   GGA_COMPAT  = T    GGA compatible to vasp.4.4-vasp.4.6
   LMAXPAW     = -100 max onsite density
   LMAXMIX     =    4 max onsite mixed and CHGCAR
   VOSKOWN=      0    Vosko Wilk Nusair interpolation
   ROPT   =    0.00000   0.00000   0.00000
 Ionic relaxation
   EDIFFG = -.1E-04   stopping-criterion for IOM
   NSW    =      0    number of steps for IOM
   NBLOCK =      1;   KBLOCK =      1    inner block; outer block 
   IBRION =     -1    ionic relax: 0-MD 1-quasi-New 2-CG
   NFREE  =      0    steps in history (QN), initial steepest desc. (CG)
   ISIF   =      2    stress and relaxation
   IWAVPR =     10    prediction:  0-non 1-charg 2-wave 3-comb
   ISYM   =      2    0-nonsym 1-usesym 2-fastsym
   LCORR  =      T    Harris-Foulkes like correction to forces

   POTIM  = 0.5000    time-step for ionic-motion
   TEIN   =    0.0    initial temperature
   TEBEG  =    0.0;   TEEND  =   0.0 temperature during run
   SMASS  =  -3.00    Nose mass-parameter (am)
   estimated Nose-frequenzy (Omega)   =  0.10E-29 period in steps =****** mass=  -0.252E-26a.u.
   SCALEE = 1.0000    scale energy and forces
   NPACO  =    256;   APACO  = 16.0  distance and # of slots for P.C.
   PSTRESS=    0.0 pullay stress

  Mass of Ions in am
   POMASS =  32.07 63.55 55.85
  Ionic Valenz
   ZVAL   =   6.00 17.00 14.00
  Atomic Wigner-Seitz radii
   RWIGS  =  -1.00 -1.00 -1.00
  virtual crystal weights 
   VCA    =   1.00  1.00  1.00
   NELECT =     688.0000    total number of electrons
   NUPDOWN=      -1.0000    fix difference up-down

 DOS related values:
   EMIN   =  10.00;   EMAX   =-10.00  energy-range for DOS
   EFERMI =   0.00
   ISMEAR =    -5;   SIGMA  =   0.03  broadening in eV -4-tet -1-fermi 0-gaus

 Electronic relaxation 2 (details)
   IALGO  =     38    algorithm
   LDIAG  =      T    sub-space diagonalisation (order eigenvalues)
   LSUBROT=      F    optimize rotation matrix (better conditioning)
   TURBO    =      0    0=normal 1=particle mesh
   IRESTART =      0    0=no restart 2=restart with 2 vectors
   NREBOOT  =      0    no. of reboots
   NMIN     =      0    reboot dimension
   EREF     =   0.00    reference energy to select bands
   IMIX   =      4    mixing-type and parameters
     AMIX     =   0.40;   BMIX     =  1.00
     AMIX_MAG =   1.60;   BMIX_MAG =  1.00
     AMIN     =   0.10
     WC   =   100.;   INIMIX=   1;  MIXPRE=   1;  MAXMIX= -45

 Intra band minimization:
   WEIMIN = 0.0000     energy-eigenvalue tresh-hold
   EBREAK =  0.49E-11  absolut break condition
   DEPER  =   0.30     relativ break condition  

   TIME   =   0.40     timestep for ELM

  volume/ion in A,a.u.               =      17.96       121.19
  Fermi-wavevector in a.u.,A,eV,Ry     =   1.379697  2.607250 25.899576  1.903565
  Thomas-Fermi vector in A             =   2.504643
 
 Write flags
   LWAVE        =      T    write WAVECAR
   LDOWNSAMPLE  =      F    k-point downsampling of WAVECAR
   LCHARG       =      T    write CHGCAR
   LVTOT        =      F    write LOCPOT, total local potential
   LVHAR        =      F    write LOCPOT, Hartree potential only
   LELF         =      F    write electronic localiz. function (ELF)
   LORBIT       =     11    0 simple, 1 ext, 2 COOP (PROOUT), +10 PAW based schemes


 Dipole corrections
   LMONO  =      F    monopole corrections only (constant potential shift)
   LDIPOL =      F    correct potential (dipole corrections)
   IDIPOL =      0    1-x, 2-y, 3-z, 4-all directions 
   EPSILON=  1.0000000 bulk dielectric constant

 LDA+U is selected, type is set to LDAUTYPE =  2
   angular momentum for each species LDAUL =     2    2    2
   U (eV)           for each species LDAUU =   0.0  0.1  4.7
   J (eV)           for each species LDAUJ =   0.0  0.0  0.0
 Exchange correlation treatment:
   GGA     =    PS    GGA type
   LEXCH   =    14    internal setting for exchange type
   VOSKOWN=      0    Vosko Wilk Nusair interpolation
   LHFCALC =     F    Hartree Fock is set to
   LHFONE  =     F    Hartree Fock one center treatment
   AEXX    =    0.0000 exact exchange contribution

 Linear response parameters
   LEPSILON=     F    determine dielectric tensor
   LRPA    =     F    only Hartree local field effects (RPA)
   LNABLA  =     F    use nabla operator in PAW spheres
   LVEL    =     F    velocity operator in full k-point grid
   LINTERFAST=   F  fast interpolation
   KINTER  =     0    interpolate to denser k-point grid
   CSHIFT  =0.1000    complex shift for real part using Kramers Kronig
   OMEGAMAX=  -1.0    maximum frequency
   DEG_THRESHOLD= 0.2000000E-02 threshold for treating states as degnerate
   RTIME   =   -0.100 relaxation time in fs
  (WPLASMAI=    0.000 imaginary part of plasma frequency in eV, 0.658/RTIME)
   DFIELD  = 0.0000000 0.0000000 0.0000000 field for delta impulse in time
 
 Orbital magnetization related:
   ORBITALMAG=     F  switch on orbital magnetization
   LCHIMAG   =     F  perturbation theory with respect to B field
   DQ        =  0.001000  dq finite difference perturbation B field
   LLRAUG    =     F  two centre corrections for induced B field

 PEAD related settings:
   LPEAD      =     T    switch on PEAD
   IPEAD      =     4    finite difference order for dpsi/dk
   LCALCPOL   =     T    calculate macroscopic polarization
   LCALCEPS   =     F    calculate dielectric tensor
   EFIELD_PEAD=    0.0000    0.0000    0.0000
   SKIP_EDOTP =     F
   LRPA       =     F
   SKIP_SCF   =     F


--------------------------------------------------------------------------------------------------------


 Static calculation
 charge density and potential will be updated during run
 spin polarized calculation
 Variant of blocked Davidson
 Davidson routine will perform the subspace rotation
 perform sub-space diagonalisation
    after iterative eigenvector-optimisation
 modified Broyden-mixing scheme, WC =      100.0
 initial mixing is a Kerker type mixing with AMIX =  0.4000 and BMIX =      1.0000
 Hartree-type preconditioning will be used
 using additional bands          168
 reciprocal scheme for non local part
 use partial core corrections
 calculate Harris-corrections to forces 
   (improved forces if not selfconsistent)
 use gradient corrections 
 use of overlap-Matrix (Vanderbilt PP)
 Fermi weights with tetrahedron method with Bloechl corrections


--------------------------------------------------------------------------------------------------------


  energy-cutoff  :      700.00
  volume of cell :     1149.37
      direct lattice vectors                 reciprocal lattice vectors
    10.503930000  0.274957000  0.000000000     0.095267741 -0.002493784  0.000000000
     0.274957000 10.503930000  0.000000000    -0.002493784  0.095267741  0.000000000
     0.000000000  0.000000000 10.424503000     0.000000000  0.000000000  0.095927835

  length of vectors
    10.507528101 10.507528101 10.424503000     0.095300375  0.095300375  0.095927835


 
 k-points in units of 2pi/SCALE and weight: Automatic mesh                          
   0.00000000  0.00000000  0.00000000       0.125
   0.04763387 -0.00124689  0.00000000       0.250
   0.04638698  0.04638698  0.00000000       0.125
   0.00000000  0.00000000  0.04796392       0.125
   0.04763387 -0.00124689  0.04796392       0.250
   0.04638698  0.04638698  0.04796392       0.125
 
 k-points in reciprocal lattice and weights: Automatic mesh                          
   0.00000000  0.00000000  0.00000000       0.125
   0.50000000  0.00000000  0.00000000       0.250
   0.50000000  0.50000000  0.00000000       0.125
   0.00000000  0.00000000  0.50000000       0.125
   0.50000000  0.00000000  0.50000000       0.250
   0.50000000  0.50000000  0.50000000       0.125
 
 position of ions in fractional coordinates (direct lattice) 
   0.12611900  0.12529400  0.12211500
   0.62611900  0.12529400  0.12211500
   0.12611900  0.62529400  0.12211500
   0.62611900  0.62529400  0.12211500
   0.37388100  0.37470600  0.12211500
   0.87388100  0.37470600  0.12211500
   0.37388100  0.87470600  0.12211500
   0.87388100  0.87470600  0.12211500
   0.12470600  0.37388100  0.87211500
   0.62470600  0.37388100  0.87211500
   0.12470600  0.87388100  0.87211500
   0.62470600  0.87388100  0.87211500
   0.37529400  0.12611900  0.87211500
   0.87529400  0.12611900  0.87211500
   0.37529400  0.62611900  0.87211500
   0.87529400  0.62611900  0.87211500
   0.12388100  0.12470600  0.62211500
   0.62388100  0.12470600  0.62211500
   0.12388100  0.62470600  0.62211500
   0.62388100  0.62470600  0.62211500
   0.37611900  0.37529400  0.62211500
   0.87611900  0.37529400  0.62211500
   0.37611900  0.87529400  0.62211500
   0.87611900  0.87529400  0.62211500
   0.37470600  0.12388100  0.37211500
   0.87470600  0.12388100  0.37211500
   0.37470600  0.62388100  0.37211500
   0.87470600  0.62388100  0.37211500
   0.12529400  0.37611900  0.37211500
   0.62529400  0.37611900  0.37211500
   0.12529400  0.87611900  0.37211500
   0.62529400  0.87611900  0.37211500
   0.00000000  0.00000000  0.50251300
   0.50000000  0.00000000  0.50251300
   0.00000000  0.50000000  0.50251300
   0.50000000  0.50000000  0.50251300
   0.25000000  0.00000000  0.25251300
   0.75000000  0.00000000  0.25251300
   0.25000000  0.50000000  0.25251300
   0.75000000  0.50000000  0.25251300
   0.25000000  0.25000000  0.00251300
   0.75000000  0.25000000  0.00251300
   0.25000000  0.75000000  0.00251300
   0.75000000  0.75000000  0.00251300
   0.00000000  0.25000000  0.75251300
   0.50000000  0.25000000  0.75251300
   0.00000000  0.75000000  0.75251300
   0.50000000  0.75000000  0.75251300
   0.00000000  0.00000000  0.00325800
   0.50000000  0.00000000  0.00325800
   0.00000000  0.50000000  0.00325800
   0.50000000  0.50000000  0.00325800
   0.25000000  0.00000000  0.75325800
   0.75000000  0.00000000  0.75325800
   0.25000000  0.50000000  0.75325800
   0.75000000  0.50000000  0.75325800
   0.25000000  0.25000000  0.50325800
   0.75000000  0.25000000  0.50325800
   0.25000000  0.75000000  0.50325800
   0.75000000  0.75000000  0.50325800
   0.00000000  0.25000000  0.25325800
   0.50000000  0.25000000  0.25325800
   0.00000000  0.75000000  0.25325800
   0.50000000  0.75000000  0.25325800
 
 position of ions in cartesian coordinates  (Angst):
   1.35919561  1.35075671  1.27298818
   6.61116061  1.48823521  1.27298818
   1.49667411  6.60272171  1.27298818
   6.74863911  6.74020021  1.27298818
   4.03024789  4.03868679  1.27298818
   9.28221289  4.17616529  1.27298818
   4.16772639  9.29065179  1.27298818
   9.41969139  9.42813029  1.27298818
   1.41270429  3.96150864  9.09136543
   6.66466929  4.09898714  9.09136543
   1.55018279  9.21347364  9.09136543
   6.80214779  9.35095214  9.09136543
   3.97673921  1.42793486  9.09136543
   9.22870421  1.56541336  9.09136543
   4.11421771  6.67989986  9.09136543
   9.36618271  6.81737836  9.09136543
   1.33552614  1.34396504  6.48523968
   6.58749114  1.48144354  6.48523968
   1.47300464  6.59593004  6.48523968
   6.72496964  6.73340854  6.48523968
   4.05391736  4.04547846  6.48523968
   9.30588236  4.18295696  6.48523968
   4.19139586  9.29744346  6.48523968
   9.44336086  9.43492196  6.48523968
   3.96994754  1.40426539  3.87911393
   9.22191254  1.54174389  3.87911393
   4.10742604  6.65623039  3.87911393
   9.35939104  6.79370889  3.87911393
   1.41949596  3.98517811  3.87911393
   6.67146096  4.12265661  3.87911393
   1.55697446  9.23714311  3.87911393
   6.80893946  9.37462161  3.87911393
   0.00000000  0.00000000  5.23844828
   5.25196500  0.13747850  5.23844828
   0.13747850  5.25196500  5.23844828
   5.38944350  5.38944350  5.23844828
   2.62598250  0.06873925  2.63232253
   7.87794750  0.20621775  2.63232253
   2.76346100  5.32070425  2.63232253
   8.01542600  5.45818275  2.63232253
   2.69472175  2.69472175  0.02619678
   7.94668675  2.83220025  0.02619678
   2.83220025  7.94668675  0.02619678
   8.08416525  8.08416525  0.02619678
   0.06873925  2.62598250  7.84457403
   5.32070425  2.76346100  7.84457403
   0.20621775  7.87794750  7.84457403
   5.45818275  8.01542600  7.84457403
   0.00000000  0.00000000  0.03396303
   5.25196500  0.13747850  0.03396303
   0.13747850  5.25196500  0.03396303
   5.38944350  5.38944350  0.03396303
   2.62598250  0.06873925  7.85234028
   7.87794750  0.20621775  7.85234028
   2.76346100  5.32070425  7.85234028
   8.01542600  5.45818275  7.85234028
   2.69472175  2.69472175  5.24621453
   7.94668675  2.83220025  5.24621453
   2.83220025  7.94668675  5.24621453
   8.08416525  8.08416525  5.24621453
   0.06873925  2.62598250  2.64008878
   5.32070425  2.76346100  2.64008878
   0.20621775  7.87794750  2.64008878
   5.45818275  8.01542600  2.64008878
 


--------------------------------------------------------------------------------------------------------


 k-point  1 :   0.0000 0.0000 0.0000  plane waves:   48371
 k-point  2 :   0.5000 0.0000 0.0000  plane waves:   48364
 k-point  3 :   0.5000 0.5000 0.0000  plane waves:   48316
 k-point  4 :   0.0000 0.0000 0.5000  plane waves:   48368
 k-point  5 :   0.5000 0.0000 0.5000  plane waves:   48276
 k-point  6 :   0.5000 0.5000 0.5000  plane waves:   48272

 maximum and minimum number of plane-waves per node :     48371    48272

 maximum number of plane-waves:     48371
 maximum index in each direction: 
   IXMAX=   22   IYMAX=   22   IZMAX=   22
   IXMIN=  -23   IYMIN=  -23   IZMIN=  -22


 serial   3D FFT for wavefunctions
 parallel 3D FFT for charge:
    minimum data exchange during FFTs selected (reduces bandwidth)


 total amount of memory used by VASP MPI-rank0   300225. kBytes
=======================================================================

   base      :      30000. kBytes
   nonl-proj :     174956. kBytes
   fftplans  :       4588. kBytes
   grid      :      69719. kBytes
   one-center:       1990. kBytes
   wavefun   :      18972. kBytes
 
     INWAV:  cpu time    0.0000: real time    0.0000
 Broyden mixing: mesh for mixing (old mesh)
   NGX = 45   NGY = 45   NGZ = 45
  (NGX  =192   NGY  =192   NGZ  =180)
  gives a total of  91125 points

 initial charge density was supplied:
 charge density of overlapping atoms calculated
 number of electron     688.0000000 magnetization       0.0000000
 keeping initial charge density in first step


--------------------------------------------------------------------------------------------------------


 Maximum index for augmentation-charges          890 (set IRDMAX)


--------------------------------------------------------------------------------------------------------


 First call to EWALD:  gamma=   0.169
 Maximum number of real-space cells 3x 3x 3
 Maximum number of reciprocal cells 3x 3x 3

    FEWALD:  cpu time    0.0026: real time    0.0026


--------------------------------------- Iteration      1(   1)  ---------------------------------------


    POTLOK:  cpu time    0.3503: real time    0.3774
    SETDIJ:  cpu time    0.0179: real time    0.0180
     EDDAV:  cpu time   63.4912: real time   64.0163
 BZINTS: Fermi energy: 16.823972;688.000000 electrons
         Band energy:***********;  BLOECHL correction: -0.017972
       DOS:  cpu time    0.0198: real time    0.0199
    --------------------------------------------
      LOOP:  cpu time   63.8791: real time   64.4317

 eigenvalue-minimisations  : 12288
 total energy-change (2. order) : 0.6198594E+04  (-0.5039150E+05)
 number of electron     688.0000000 magnetization       0.0000000
 augmentation part      688.0000000 magnetization       0.0000000

 Free energy of the ion-electron system (eV)
  ---------------------------------------------------
  alpha Z        PSCENC =      2358.80654318
  Ewald energy   TEWEN  =    -62503.91837291
  -Hartree energ DENC   =    -44297.31384250
  -exchange      EXHF   =         0.00000000
  -V(xc)+E(xc)   XCENC  =      3320.17980629
  PAW double counting   =     94592.23312189   -98164.79192727
  entropy T*S    EENTRO =         0.00000000
  eigenvalues    EBANDS =     -3126.66686158
  atomic energy  EATOM  =    114020.06510763
  Solvation  Ediel_sol  =         0.00000000
  ---------------------------------------------------
  free energy    TOTEN  =      6198.59357473 eV

  energy without entropy =     6198.59357473  energy(sigma->0) =     6198.59357473


--------------------------------------------------------------------------------------------------------




--------------------------------------- Iteration      1(   2)  ---------------------------------------


     EDDAV:  cpu time   68.1174: real time   68.6409
 BZINTS: Fermi energy:  6.611175;688.000000 electrons
         Band energy:***********;  BLOECHL correction:  0.000000
       DOS:  cpu time    0.0028: real time    0.0028
    --------------------------------------------
      LOOP:  cpu time   68.1202: real time   68.6437

 eigenvalue-minimisations  : 12800
 total energy-change (2. order) :-0.6284801E+04  (-0.6153469E+04)
 number of electron     688.0000000 magnetization       0.0000000
 augmentation part      688.0000000 magnetization       0.0000000

 Free energy of the ion-electron system (eV)
  ---------------------------------------------------
  alpha Z        PSCENC =      2358.80654318
  Ewald energy   TEWEN  =    -62503.91837291
  -Hartree energ DENC   =    -44297.31384250
  -exchange      EXHF   =         0.00000000
  -V(xc)+E(xc)   XCENC  =      3320.17980629
  PAW double counting   =     94592.23312189   -98164.79192727
  entropy T*S    EENTRO =         0.00000000
  eigenvalues    EBANDS =     -9411.46764356
  atomic energy  EATOM  =    114020.06510763
  Solvation  Ediel_sol  =         0.00000000
  ---------------------------------------------------
  free energy    TOTEN  =       -86.20720725 eV

  energy without entropy =      -86.20720725  energy(sigma->0) =      -86.20720725


--------------------------------------------------------------------------------------------------------




--------------------------------------- Iteration      1(   3)  ---------------------------------------


     EDDAV:  cpu time  127.9164: real time  128.7962
 BZINTS: Fermi energy:  6.161461;688.000000 electrons
         Band energy:***********;  BLOECHL correction:  0.000000
       DOS:  cpu time    0.0032: real time    0.0032
    --------------------------------------------
      LOOP:  cpu time  127.9196: real time  128.7994

 eigenvalue-minimisations  : 17920
 total energy-change (2. order) :-0.2859593E+03  (-0.2845986E+03)
 number of electron     688.0000000 magnetization       0.0000000
 augmentation part      688.0000000 magnetization       0.0000000

 Free energy of the ion-electron system (eV)
  ---------------------------------------------------
  alpha Z        PSCENC =      2358.80654318
  Ewald energy   TEWEN  =    -62503.91837291
  -Hartree energ DENC   =    -44297.31384250
  -exchange      EXHF   =         0.00000000
  -V(xc)+E(xc)   XCENC  =      3320.17980629
  PAW double counting   =     94592.23312189   -98164.79192727
  entropy T*S    EENTRO =         0.00000000
  eigenvalues    EBANDS =     -9697.42699060
  atomic energy  EATOM  =    114020.06510763
  Solvation  Ediel_sol  =         0.00000000
  ---------------------------------------------------
  free energy    TOTEN  =      -372.16655429 eV

  energy without entropy =     -372.16655429  energy(sigma->0) =     -372.16655429


--------------------------------------------------------------------------------------------------------




--------------------------------------- Iteration      1(   4)  ---------------------------------------


     EDDAV:  cpu time   68.2641: real time   68.7930
 BZINTS: Fermi energy:  6.095942;688.000000 electrons
         Band energy:***********;  BLOECHL correction:  0.000000
       DOS:  cpu time    0.0027: real time    0.0027
    --------------------------------------------
      LOOP:  cpu time   68.2669: real time   68.7957

 eigenvalue-minimisations  : 12800
 total energy-change (2. order) :-0.3943042E+01  (-0.3942838E+01)
 number of electron     688.0000000 magnetization       0.0000000
 augmentation part      688.0000000 magnetization       0.0000000

 Free energy of the ion-electron system (eV)
  ---------------------------------------------------
  alpha Z        PSCENC =      2358.80654318
  Ewald energy   TEWEN  =    -62503.91837291
  -Hartree energ DENC   =    -44297.31384250
  -exchange      EXHF   =         0.00000000
  -V(xc)+E(xc)   XCENC  =      3320.17980629
  PAW double counting   =     94592.23312189   -98164.79192727
  entropy T*S    EENTRO =         0.00000000
  eigenvalues    EBANDS =     -9701.37003241
  atomic energy  EATOM  =    114020.06510763
  Solvation  Ediel_sol  =         0.00000000
  ---------------------------------------------------
  free energy    TOTEN  =      -376.10959610 eV

  energy without entropy =     -376.10959610  energy(sigma->0) =     -376.10959610


--------------------------------------------------------------------------------------------------------




--------------------------------------- Iteration      1(   5)  ---------------------------------------


     EDDAV:  cpu time  135.0782: real time  135.9840
 BZINTS: Fermi energy:  6.065914;688.000000 electrons
         Band energy:***********;  BLOECHL correction:  0.000000
       DOS:  cpu time    0.0028: real time    0.0028
    CHARGE:  cpu time    1.1764: real time    1.1849
    MIXING:  cpu time    0.0057: real time    0.0058
    --------------------------------------------
      LOOP:  cpu time  136.2631: real time  137.1775

 eigenvalue-minimisations  : 18176
 total energy-change (2. order) :-0.1037308E+00  (-0.1037299E+00)
 number of electron     688.0000262 magnetization       0.0000000
 augmentation part      261.0161283 magnetization       0.0000000

 Broyden mixing:
  rms(total) = 0.75038E+01    rms(broyden)= 0.75037E+01
  rms(prec ) = 0.89871E+01
  weight for this iteration     100.00

 Free energy of the ion-electron system (eV)
  ---------------------------------------------------
  alpha Z        PSCENC =      2358.80654318
  Ewald energy   TEWEN  =    -62503.91837291
  -Hartree energ DENC   =    -44297.31384250
  -exchange      EXHF   =         0.00000000
  -V(xc)+E(xc)   XCENC  =      3320.17980629
  PAW double counting   =     94592.23312189   -98164.79192727
  entropy T*S    EENTRO =         0.00000000
  eigenvalues    EBANDS =     -9701.47376319
  atomic energy  EATOM  =    114020.06510763
  Solvation  Ediel_sol  =         0.00000000
  ---------------------------------------------------
  free energy    TOTEN  =      -376.21332688 eV

  energy without entropy =     -376.21332688  energy(sigma->0) =     -376.21332688


--------------------------------------------------------------------------------------------------------




--------------------------------------- Iteration      1(   6)  ---------------------------------------


    POTLOK:  cpu time    0.1197: real time    0.1205
    SETDIJ:  cpu time    0.0127: real time    0.0127
     EDDAV:  cpu time   64.4788: real time   64.9844
 BZINTS: Fermi energy:  4.276783;688.000000 electrons
         Band energy:***********;  BLOECHL correction:  0.000000
       DOS:  cpu time    0.0036: real time    0.0036
    CHARGE:  cpu time    1.1792: real time    1.1875
    MIXING:  cpu time    0.0023: real time    0.0115
    --------------------------------------------
      LOOP:  cpu time   65.7963: real time   66.3202

 eigenvalue-minimisations  : 12288
 total energy-change (2. order) : 0.4152440E+02  (-0.5904885E+02)
 number of electron     688.0000284 magnetization      -0.0000000
 augmentation part      296.3111884 magnetization      -0.0000000

 Broyden mixing:
  rms(total) = 0.10001E+02    rms(broyden)= 0.10001E+02
  rms(prec ) = 0.10453E+02
  weight for this iteration     100.00

 eigenvalues of (default mixing * dielectric matrix)
  average eigenvalue GAMMA=   0.1683
  0.1683

 Free energy of the ion-electron system (eV)
  ---------------------------------------------------
  alpha Z        PSCENC =      2358.80654318
  Ewald energy   TEWEN  =    -62503.91837291
  -Hartree energ DENC   =    -42339.74118114
  -exchange      EXHF   =         0.00000000
  -V(xc)+E(xc)   XCENC  =      3267.55927058
  PAW double counting   =     96415.01481223   -99774.14159447
  entropy T*S    EENTRO =         0.00000000
  eigenvalues    EBANDS =    -11778.33351343
  atomic energy  EATOM  =    114020.06510763
  Solvation  Ediel_sol  =         0.00000000
  ---------------------------------------------------
  free energy    TOTEN  =      -334.68892834 eV

  energy without entropy =     -334.68892834  energy(sigma->0) =     -334.68892834


--------------------------------------------------------------------------------------------------------




--------------------------------------- Iteration      1(   7)  ---------------------------------------


    POTLOK:  cpu time    0.1181: real time    0.1200
    SETDIJ:  cpu time    0.0126: real time    0.0127
     EDDAV:  cpu time   64.1395: real time   64.6386
 BZINTS: Fermi energy:  4.797511;688.000000 electrons
         Band energy:***********;  BLOECHL correction:  0.000000
       DOS:  cpu time    0.0032: real time    0.0032
    CHARGE:  cpu time    1.1729: real time    1.1811
    MIXING:  cpu time    0.0014: real time    0.0021
    --------------------------------------------
      LOOP:  cpu time   65.4477: real time   65.9576

 eigenvalue-minimisations  : 12288
 total energy-change (2. order) : 0.5113428E+01  (-0.1122763E+02)
 number of electron     688.0000276 magnetization      -0.0000000
 augmentation part      286.0483637 magnetization      -0.0000000

 Broyden mixing:
  rms(total) = 0.43697E+01    rms(broyden)= 0.43697E+01
  rms(prec ) = 0.44449E+01
  weight for this iteration     100.00

 eigenvalues of (default mixing * dielectric matrix)
  average eigenvalue GAMMA=   0.6165
  0.7650  0.4680

 Free energy of the ion-electron system (eV)
  ---------------------------------------------------
  alpha Z        PSCENC =      2358.80654318
  Ewald energy   TEWEN  =    -62503.91837291
  -Hartree energ DENC   =    -42823.92299182
  -exchange      EXHF   =         0.00000000
  -V(xc)+E(xc)   XCENC  =      3278.99786862
  PAW double counting   =     99832.80338517  -103349.05691407
  entropy T*S    EENTRO =         0.00000000
  eigenvalues    EBANDS =    -11143.35012609
  atomic energy  EATOM  =    114020.06510763
  Solvation  Ediel_sol  =         0.00000000
  ---------------------------------------------------
  free energy    TOTEN  =      -329.57550030 eV

  energy without entropy =     -329.57550030  energy(sigma->0) =     -329.57550030


--------------------------------------------------------------------------------------------------------




--------------------------------------- Iteration      1(   8)  ---------------------------------------


    POTLOK:  cpu time    0.1197: real time    0.1207
    SETDIJ:  cpu time    0.0127: real time    0.0127
     EDDAV:  cpu time   89.1464: real time   89.7905
 BZINTS: Fermi energy:  5.311869;688.000000 electrons
         Band energy:***********;  BLOECHL correction:  0.000000
       DOS:  cpu time    0.0031: real time    0.0031
    CHARGE:  cpu time    1.1717: real time    1.1801
    MIXING:  cpu time    0.0013: real time    0.0013
    --------------------------------------------
      LOOP:  cpu time   90.4549: real time   91.1084

 eigenvalue-minimisations  : 14336
 total energy-change (2. order) : 0.3569339E-01  (-0.3596455E+01)
 number of electron     688.0000274 magnetization      -0.0000000
 augmentation part      281.5158326 magnetization      -0.0000000

 Broyden mixing:
  rms(total) = 0.32315E+01    rms(broyden)= 0.32314E+01
  rms(prec ) = 0.34972E+01
  weight for this iteration     100.00

 eigenvalues of (default mixing * dielectric matrix)
  average eigenvalue GAMMA=   0.8748
  1.5537  0.6215  0.4492

 Free energy of the ion-electron system (eV)
  ---------------------------------------------------
  alpha Z        PSCENC =      2358.80654318
  Ewald energy   TEWEN  =    -62503.91837291
  -Hartree energ DENC   =    -43081.91813349
  -exchange      EXHF   =         0.00000000
  -V(xc)+E(xc)   XCENC  =      3291.27796987
  PAW double counting   =    105311.04633023  -108926.77121423
  entropy T*S    EENTRO =         0.00000000
  eigenvalues    EBANDS =    -10798.12803718
  atomic energy  EATOM  =    114020.06510763
  Solvation  Ediel_sol  =         0.00000000
  ---------------------------------------------------
  free energy    TOTEN  =      -329.53980691 eV

  energy without entropy =     -329.53980691  energy(sigma->0) =     -329.53980691


--------------------------------------------------------------------------------------------------------




--------------------------------------- Iteration      1(   9)  ---------------------------------------


    POTLOK:  cpu time    0.1191: real time    0.1203
    SETDIJ:  cpu time    0.0127: real time    0.0128
     EDDAV:  cpu time   91.9732: real time   92.6427
 BZINTS: Fermi energy:  4.789807;688.000000 electrons
         Band energy:***********;  BLOECHL correction:  0.000000
       DOS:  cpu time    0.0031: real time    0.0032
    CHARGE:  cpu time    1.3964: real time    1.4057
    MIXING:  cpu time    0.0017: real time    0.0189
    --------------------------------------------
      LOOP:  cpu time   93.5062: real time   94.2036

 eigenvalue-minimisations  : 15104
 total energy-change (2. order) :-0.1823951E+01  (-0.1006858E+02)
 number of electron     688.0000273 magnetization      -0.0000000
 augmentation part      282.1158276 magnetization      -0.0000000

 Broyden mixing:
  rms(total) = 0.23470E+01    rms(broyden)= 0.23470E+01
  rms(prec ) = 0.27931E+01
  weight for this iteration     100.00

 eigenvalues of (default mixing * dielectric matrix)
  average eigenvalue GAMMA=   0.9804
  2.3935  0.5972  0.5972  0.3337

 Free energy of the ion-electron system (eV)
  ---------------------------------------------------
  alpha Z        PSCENC =      2358.80654318
  Ewald energy   TEWEN  =    -62503.91837291
  -Hartree energ DENC   =    -42868.75904770
  -exchange      EXHF   =         0.00000000
  -V(xc)+E(xc)   XCENC  =      3284.07558555
  PAW double counting   =    109761.62849110  -113414.01173897
  entropy T*S    EENTRO =         0.00000000
  eigenvalues    EBANDS =    -10969.25032570
  atomic energy  EATOM  =    114020.06510763
  Solvation  Ediel_sol  =         0.00000000
  ---------------------------------------------------
  free energy    TOTEN  =      -331.36375783 eV

  energy without entropy =     -331.36375783  energy(sigma->0) =     -331.36375783


--------------------------------------------------------------------------------------------------------




--------------------------------------- Iteration      1(  10)  ---------------------------------------


    POTLOK:  cpu time    0.1216: real time    0.1225
    SETDIJ:  cpu time    0.0129: real time    0.0130
     EDDAV:  cpu time  115.9513: real time  116.7480
 BZINTS: Fermi energy:  4.940045;688.000000 electrons
         Band energy:***********;  BLOECHL correction:  0.000000
       DOS:  cpu time    0.0031: real time    0.0032
    CHARGE:  cpu time    1.4365: real time    1.4457
    MIXING:  cpu time    0.0016: real time    0.0016
    --------------------------------------------
      LOOP:  cpu time  117.5271: real time  118.3339

 eigenvalue-minimisations  : 16896
 total energy-change (2. order) : 0.3659126E+01  (-0.2150019E+01)
 number of electron     688.0000273 magnetization       0.0000000
 augmentation part      282.3814678 magnetization       0.0000000

 Broyden mixing:
  rms(total) = 0.27454E+00    rms(broyden)= 0.27449E+00
  rms(prec ) = 0.29945E+00
  weight for this iteration     100.00

 eigenvalues of (default mixing * dielectric matrix)
  average eigenvalue GAMMA=   0.9216
  2.3606  0.7708  0.5762  0.5762  0.3244

 Free energy of the ion-electron system (eV)
  ---------------------------------------------------
  alpha Z        PSCENC =      2358.80654318
  Ewald energy   TEWEN  =    -62503.91837291
  -Hartree energ DENC   =    -42899.32130974
  -exchange      EXHF   =         0.00000000
  -V(xc)+E(xc)   XCENC  =      3287.39512786
  PAW double counting   =    113292.90818550  -116990.39388995
  entropy T*S    EENTRO =         0.00000000
  eigenvalues    EBANDS =    -10893.24602299
  atomic energy  EATOM  =    114020.06510763
  Solvation  Ediel_sol  =         0.00000000
  ---------------------------------------------------
  free energy    TOTEN  =      -327.70463142 eV

  energy without entropy =     -327.70463142  energy(sigma->0) =     -327.70463142


--------------------------------------------------------------------------------------------------------




--------------------------------------- Iteration      1(  11)  ---------------------------------------


    POTLOK:  cpu time    0.1343: real time    0.1352
    SETDIJ:  cpu time    0.0165: real time    0.0166
     EDDAV:  cpu time   91.4162: real time   92.0719
 BZINTS: Fermi energy:  4.951438;688.000000 electrons
         Band energy:***********;  BLOECHL correction:  0.000000
       DOS:  cpu time    0.0032: real time    0.0032
    CHARGE:  cpu time    1.1719: real time    1.1802
    MIXING:  cpu time    0.0014: real time    0.0014
    --------------------------------------------
      LOOP:  cpu time   92.7435: real time   93.4086

 eigenvalue-minimisations  : 14848
 total energy-change (2. order) :-0.1220984E+00  (-0.1193592E+00)
 number of electron     688.0000273 magnetization      -0.0000000
 augmentation part      282.3615436 magnetization      -0.0000000

 Broyden mixing:
  rms(total) = 0.35409E+00    rms(broyden)= 0.35408E+00
  rms(prec ) = 0.39031E+00
  weight for this iteration     100.00

 eigenvalues of (default mixing * dielectric matrix)
  average eigenvalue GAMMA=   0.9034
  2.2502  0.7360  0.7360  0.7810  0.5790  0.3385

 Free energy of the ion-electron system (eV)
  ---------------------------------------------------
  alpha Z        PSCENC =      2358.80654318
  Ewald energy   TEWEN  =    -62503.91837291
  -Hartree energ DENC   =    -42916.50931732
  -exchange      EXHF   =         0.00000000
  -V(xc)+E(xc)   XCENC  =      3287.10229398
  PAW double counting   =    113079.62958508  -116777.09207320
  entropy T*S    EENTRO =         0.00000000
  eigenvalues    EBANDS =    -10875.91049625
  atomic energy  EATOM  =    114020.06510763
  Solvation  Ediel_sol  =         0.00000000
  ---------------------------------------------------
  free energy    TOTEN  =      -327.82672981 eV

  energy without entropy =     -327.82672981  energy(sigma->0) =     -327.82672981


--------------------------------------------------------------------------------------------------------




--------------------------------------- Iteration      1(  12)  ---------------------------------------


    POTLOK:  cpu time    0.1185: real time    0.1199
    SETDIJ:  cpu time    0.0127: real time    0.0128
     EDDAV:  cpu time  118.9535: real time  119.7677
 BZINTS: Fermi energy:  4.932780;688.000000 electrons
         Band energy:***********;  BLOECHL correction:  0.000000
       DOS:  cpu time    0.0031: real time    0.0031
    CHARGE:  cpu time    1.1729: real time    1.1802
    MIXING:  cpu time    0.0015: real time    0.0015
    --------------------------------------------
      LOOP:  cpu time  120.2622: real time  121.0851

 eigenvalue-minimisations  : 16896
 total energy-change (2. order) : 0.1151845E-01  (-0.4951072E-01)
 number of electron     688.0000273 magnetization      -0.0000000
 augmentation part      282.2445564 magnetization      -0.0000000

 Broyden mixing:
  rms(total) = 0.13242E+00    rms(broyden)= 0.13242E+00
  rms(prec ) = 0.14747E+00
  weight for this iteration     100.00

 eigenvalues of (default mixing * dielectric matrix)
  average eigenvalue GAMMA=   0.9417
  2.2758  1.0788  1.0788  0.6229  0.6229  0.5740  0.3383

 Free energy of the ion-electron system (eV)
  ---------------------------------------------------
  alpha Z        PSCENC =      2358.80654318
  Ewald energy   TEWEN  =    -62503.91837291
  -Hartree energ DENC   =    -42916.00697026
  -exchange      EXHF   =         0.00000000
  -V(xc)+E(xc)   XCENC  =      3286.61599957
  PAW double counting   =    112684.74463954  -116379.13348720
  entropy T*S    EENTRO =         0.00000000
  eigenvalues    EBANDS =    -10878.98867092
  atomic energy  EATOM  =    114020.06510763
  Solvation  Ediel_sol  =         0.00000000
  ---------------------------------------------------
  free energy    TOTEN  =      -327.81521136 eV

  energy without entropy =     -327.81521136  energy(sigma->0) =     -327.81521136


--------------------------------------------------------------------------------------------------------




--------------------------------------- Iteration      1(  13)  ---------------------------------------


    POTLOK:  cpu time    0.1199: real time    0.1206
    SETDIJ:  cpu time    0.0128: real time    0.0128
     EDDAV:  cpu time   82.2581: real time   82.8555
 BZINTS: Fermi energy:  4.935570;688.000000 electrons
         Band energy:***********;  BLOECHL correction:  0.000000
       DOS:  cpu time    0.0032: real time    0.0032
    CHARGE:  cpu time    1.1745: real time    1.1828
    MIXING:  cpu time    0.0015: real time    0.0015
    --------------------------------------------
      LOOP:  cpu time   83.5700: real time   84.1765

 eigenvalue-minimisations  : 13824
 total energy-change (2. order) :-0.5290798E-02  (-0.4938902E-02)
 number of electron     688.0000273 magnetization       0.0000000
 augmentation part      282.2600821 magnetization       0.0000000

 Broyden mixing:
  rms(total) = 0.91576E-01    rms(broyden)= 0.91575E-01
  rms(prec ) = 0.93438E-01
  weight for this iteration     100.00

 eigenvalues of (default mixing * dielectric matrix)
  average eigenvalue GAMMA=   1.1284
  2.5504  2.5504  0.3384  0.8442  0.8442  0.6624  0.6624  0.5749

 Free energy of the ion-electron system (eV)
  ---------------------------------------------------
  alpha Z        PSCENC =      2358.80654318
  Ewald energy   TEWEN  =    -62503.91837291
  -Hartree energ DENC   =    -42921.77637456
  -exchange      EXHF   =         0.00000000
  -V(xc)+E(xc)   XCENC  =      3286.68915694
  PAW double counting   =    112439.44235151  -116133.75441844
  entropy T*S    EENTRO =         0.00000000
  eigenvalues    EBANDS =    -10873.37449551
  atomic energy  EATOM  =    114020.06510763
  Solvation  Ediel_sol  =         0.00000000
  ---------------------------------------------------
  free energy    TOTEN  =      -327.82050216 eV

  energy without entropy =     -327.82050216  energy(sigma->0) =     -327.82050216


--------------------------------------------------------------------------------------------------------




--------------------------------------- Iteration      1(  14)  ---------------------------------------


    POTLOK:  cpu time    0.1180: real time    0.1202
    SETDIJ:  cpu time    0.0126: real time    0.0127
     EDDAV:  cpu time  122.1658: real time  122.9863
 BZINTS: Fermi energy:  4.938216;688.000000 electrons
         Band energy:***********;  BLOECHL correction:  0.000000
       DOS:  cpu time    0.0032: real time    0.0032
    CHARGE:  cpu time    1.1753: real time    1.1824
    MIXING:  cpu time    0.0016: real time    0.0017
    --------------------------------------------
      LOOP:  cpu time  123.4765: real time  124.3065

 eigenvalue-minimisations  : 17152
 total energy-change (2. order) :-0.1021472E-01  (-0.5390760E-02)
 number of electron     688.0000273 magnetization       0.0000000
 augmentation part      282.2209915 magnetization       0.0000000

 Broyden mixing:
  rms(total) = 0.40355E-01    rms(broyden)= 0.40349E-01
  rms(prec ) = 0.45069E-01
  weight for this iteration     100.00

 eigenvalues of (default mixing * dielectric matrix)
  average eigenvalue GAMMA=   1.0533
  2.3726  2.3726  0.9383  0.9383  0.3383  0.6450  0.6450  0.5648  0.6649

 Free energy of the ion-electron system (eV)
  ---------------------------------------------------
  alpha Z        PSCENC =      2358.80654318
  Ewald energy   TEWEN  =    -62503.91837291
  -Hartree energ DENC   =    -42930.07244269
  -exchange      EXHF   =         0.00000000
  -V(xc)+E(xc)   XCENC  =      3286.50172132
  PAW double counting   =    112155.26479572  -115849.01646927
  entropy T*S    EENTRO =         0.00000000
  eigenvalues    EBANDS =    -10865.46159985
  atomic energy  EATOM  =    114020.06510763
  Solvation  Ediel_sol  =         0.00000000
  ---------------------------------------------------
  free energy    TOTEN  =      -327.83071688 eV

  energy without entropy =     -327.83071688  energy(sigma->0) =     -327.83071688


--------------------------------------------------------------------------------------------------------




--------------------------------------- Iteration      1(  15)  ---------------------------------------


    POTLOK:  cpu time    0.1182: real time    0.1204
    SETDIJ:  cpu time    0.0127: real time    0.0128
     EDDAV:  cpu time   79.2273: real time   79.8013
 BZINTS: Fermi energy:  4.936660;688.000000 electrons
         Band energy:***********;  BLOECHL correction:  0.000000
       DOS:  cpu time    0.0031: real time    0.0032
    CHARGE:  cpu time    1.1728: real time    1.1811
    MIXING:  cpu time    0.0017: real time    0.0017
    --------------------------------------------
      LOOP:  cpu time   80.5358: real time   81.1205

 eigenvalue-minimisations  : 13312
 total energy-change (2. order) : 0.3079369E-03  (-0.5206467E-03)
 number of electron     688.0000273 magnetization       0.0000000
 augmentation part      282.2239737 magnetization       0.0000000

 Broyden mixing:
  rms(total) = 0.17144E-01    rms(broyden)= 0.17143E-01
  rms(prec ) = 0.17882E-01
  weight for this iteration     100.00

 eigenvalues of (default mixing * dielectric matrix)
  average eigenvalue GAMMA=   0.9828
  2.3215  2.3215  0.9371  0.9371  0.3383  0.6352  0.6352  0.6645  0.5186  0.5186

 Free energy of the ion-electron system (eV)
  ---------------------------------------------------
  alpha Z        PSCENC =      2358.80654318
  Ewald energy   TEWEN  =    -62503.91837291
  -Hartree energ DENC   =    -42928.58213566
  -exchange      EXHF   =         0.00000000
  -V(xc)+E(xc)   XCENC  =      3286.47655235
  PAW double counting   =    112246.70005045  -115940.71911213
  entropy T*S    EENTRO =         0.00000000
  eigenvalues    EBANDS =    -10866.65904185
  atomic energy  EATOM  =    114020.06510763
  Solvation  Ediel_sol  =         0.00000000
  ---------------------------------------------------
  free energy    TOTEN  =      -327.83040894 eV

  energy without entropy =     -327.83040894  energy(sigma->0) =     -327.83040894


--------------------------------------------------------------------------------------------------------




--------------------------------------- Iteration      1(  16)  ---------------------------------------


    POTLOK:  cpu time    0.1195: real time    0.1203
    SETDIJ:  cpu time    0.0127: real time    0.0128
     EDDAV:  cpu time  138.3506: real time  139.2613
 BZINTS: Fermi energy:  4.936270;688.000000 electrons
         Band energy:***********;  BLOECHL correction:  0.000000
       DOS:  cpu time    0.0031: real time    0.0031
    CHARGE:  cpu time    1.1743: real time    1.1828
    MIXING:  cpu time    0.0019: real time    0.0128
    --------------------------------------------
      LOOP:  cpu time  139.6622: real time  140.5932

 eigenvalue-minimisations  : 17920
 total energy-change (2. order) :-0.1452790E-03  (-0.4556096E-04)
 number of electron     688.0000273 magnetization       0.0000000
 augmentation part      282.2259822 magnetization       0.0000000

 Broyden mixing:
  rms(total) = 0.12459E-01    rms(broyden)= 0.12459E-01
  rms(prec ) = 0.12966E-01
  weight for this iteration     100.00

 eigenvalues of (default mixing * dielectric matrix)
  average eigenvalue GAMMA=   1.1227
  2.4324  2.0576  2.0576  1.2694  0.3383  0.8272  0.8272  0.6617  0.6617  0.5705
  0.6461

 Free energy of the ion-electron system (eV)
  ---------------------------------------------------
  alpha Z        PSCENC =      2358.80654318
  Ewald energy   TEWEN  =    -62503.91837291
  -Hartree energ DENC   =    -42928.75579527
  -exchange      EXHF   =         0.00000000
  -V(xc)+E(xc)   XCENC  =      3286.48942055
  PAW double counting   =    112256.26416145  -115950.21614523
  entropy T*S    EENTRO =         0.00000000
  eigenvalues    EBANDS =    -10866.56547361
  atomic energy  EATOM  =    114020.06510763
  Solvation  Ediel_sol  =         0.00000000
  ---------------------------------------------------
  free energy    TOTEN  =      -327.83055422 eV

  energy without entropy =     -327.83055422  energy(sigma->0) =     -327.83055422


--------------------------------------------------------------------------------------------------------




--------------------------------------- Iteration      1(  17)  ---------------------------------------


    POTLOK:  cpu time    0.1200: real time    0.1210
    SETDIJ:  cpu time    0.0126: real time    0.0127
     EDDAV:  cpu time   86.3090: real time   86.9287
 BZINTS: Fermi energy:  4.936697;688.000000 electrons
         Band energy:***********;  BLOECHL correction:  0.000000
       DOS:  cpu time    0.0032: real time    0.0032
    CHARGE:  cpu time    1.1740: real time    1.1823
    MIXING:  cpu time    0.0019: real time    0.0019
    --------------------------------------------
      LOOP:  cpu time   87.6207: real time   88.2498

 eigenvalue-minimisations  : 13824
 total energy-change (2. order) :-0.4942950E-03  (-0.2081501E-03)
 number of electron     688.0000273 magnetization       0.0000000
 augmentation part      282.2166792 magnetization       0.0000000

 Broyden mixing:
  rms(total) = 0.86871E-02    rms(broyden)= 0.86862E-02
  rms(prec ) = 0.90014E-02
  weight for this iteration     100.00

 eigenvalues of (default mixing * dielectric matrix)
  average eigenvalue GAMMA=   1.1469
  3.1385  2.1740  1.5544  1.5544  0.9227  0.9227  0.3383  0.6534  0.6534  0.5919
  0.6296  0.6296

 Free energy of the ion-electron system (eV)
  ---------------------------------------------------
  alpha Z        PSCENC =      2358.80654318
  Ewald energy   TEWEN  =    -62503.91837291
  -Hartree energ DENC   =    -42930.40610771
  -exchange      EXHF   =         0.00000000
  -V(xc)+E(xc)   XCENC  =      3286.53149767
  PAW double counting   =    112257.91701342  -115951.72729523
  entropy T*S    EENTRO =         0.00000000
  eigenvalues    EBANDS =    -10865.09943457
  atomic energy  EATOM  =    114020.06510763
  Solvation  Ediel_sol  =         0.00000000
  ---------------------------------------------------
  free energy    TOTEN  =      -327.83104852 eV

  energy without entropy =     -327.83104852  energy(sigma->0) =     -327.83104852


--------------------------------------------------------------------------------------------------------




--------------------------------------- Iteration      1(  18)  ---------------------------------------


    POTLOK:  cpu time    0.1197: real time    0.1206
    SETDIJ:  cpu time    0.0126: real time    0.0126
     EDDAV:  cpu time  120.9728: real time  121.7860
 BZINTS: Fermi energy:  4.936374;688.000000 electrons
         Band energy:***********;  BLOECHL correction:  0.000000
       DOS:  cpu time    0.0031: real time    0.0032
    CHARGE:  cpu time    1.1733: real time    1.1816
    MIXING:  cpu time    0.0019: real time    0.0019
    --------------------------------------------
      LOOP:  cpu time  122.2834: real time  123.1059

 eigenvalue-minimisations  : 16384
 total energy-change (2. order) :-0.6291938E-04  (-0.1769549E-04)
 number of electron     688.0000273 magnetization       0.0000000
 augmentation part      282.2232504 magnetization       0.0000000

 Broyden mixing:
  rms(total) = 0.49009E-02    rms(broyden)= 0.49006E-02
  rms(prec ) = 0.55635E-02
  weight for this iteration     100.00

 eigenvalues of (default mixing * dielectric matrix)
  average eigenvalue GAMMA=   1.1409
  3.3432  2.1797  1.9540  1.1024  1.1024  0.3383  0.7753  0.7753  0.7702  0.6576
  0.6576  0.5881  0.5881

 Free energy of the ion-electron system (eV)
  ---------------------------------------------------
  alpha Z        PSCENC =      2358.80654318
  Ewald energy   TEWEN  =    -62503.91837291
  -Hartree energ DENC   =    -42930.30053026
  -exchange      EXHF   =         0.00000000
  -V(xc)+E(xc)   XCENC  =      3286.54034584
  PAW double counting   =    112261.68875152  -115955.44373131
  entropy T*S    EENTRO =         0.00000000
  eigenvalues    EBANDS =    -10865.26922513
  atomic energy  EATOM  =    114020.06510763
  Solvation  Ediel_sol  =         0.00000000
  ---------------------------------------------------
  free energy    TOTEN  =      -327.83111143 eV

  energy without entropy =     -327.83111143  energy(sigma->0) =     -327.83111143


--------------------------------------------------------------------------------------------------------




--------------------------------------- Iteration      1(  19)  ---------------------------------------


    POTLOK:  cpu time    0.1195: real time    0.1206
    SETDIJ:  cpu time    0.0125: real time    0.0126
     EDDAV:  cpu time  110.4072: real time  111.1582
 BZINTS: Fermi energy:  4.936056;688.000000 electrons
         Band energy:***********;  BLOECHL correction:  0.000000
       DOS:  cpu time    0.0032: real time    0.0032
    CHARGE:  cpu time    1.1753: real time    1.1835
    MIXING:  cpu time    0.0020: real time    0.0020
    --------------------------------------------
      LOOP:  cpu time  111.7197: real time  112.4801

 eigenvalue-minimisations  : 15872
 total energy-change (2. order) :-0.5405760E-05  (-0.4970908E-05)
 number of electron     688.0000273 magnetization       0.0000000
 augmentation part      282.2240640 magnetization       0.0000000

 Broyden mixing:
  rms(total) = 0.28584E-02    rms(broyden)= 0.28584E-02
  rms(prec ) = 0.31535E-02
  weight for this iteration     100.00

 eigenvalues of (default mixing * dielectric matrix)
  average eigenvalue GAMMA=   1.1570
  3.3791  2.2253  2.2253  1.0705  1.0705  1.0094  1.0094  0.3383  0.7438  0.6538
[...]
   -.420E+02 0.398E+00 0.162E+02   0.429E+02 -.380E+00 -.164E+02   -.860E+00 -.167E-01 0.154E+00   -.120E-04 0.588E-06 -.668E-06
   -.420E+02 0.398E+00 0.162E+02   0.429E+02 -.380E+00 -.164E+02   -.860E+00 -.167E-01 0.154E+00   -.120E-04 0.588E-06 -.668E-06
   -.420E+02 0.398E+00 0.162E+02   0.429E+02 -.380E+00 -.164E+02   -.860E+00 -.167E-01 0.154E+00   -.120E-04 0.588E-06 -.668E-06
   -.420E+02 0.398E+00 0.162E+02   0.429E+02 -.380E+00 -.164E+02   -.860E+00 -.167E-01 0.154E+00   -.120E-04 0.588E-06 -.668E-06
   0.420E+02 -.398E+00 0.162E+02   -.429E+02 0.380E+00 -.164E+02   0.860E+00 0.167E-01 0.154E+00   0.120E-04 -.588E-06 -.668E-06
   0.420E+02 -.398E+00 0.162E+02   -.429E+02 0.380E+00 -.164E+02   0.860E+00 0.167E-01 0.154E+00   0.120E-04 -.588E-06 -.668E-06
   0.420E+02 -.398E+00 0.162E+02   -.429E+02 0.380E+00 -.164E+02   0.860E+00 0.167E-01 0.154E+00   0.120E-04 -.588E-06 -.668E-06
   0.420E+02 -.398E+00 0.162E+02   -.429E+02 0.380E+00 -.164E+02   0.860E+00 0.167E-01 0.154E+00   0.120E-04 -.588E-06 -.668E-06
   0.398E+00 -.420E+02 0.162E+02   -.380E+00 0.429E+02 -.164E+02   -.167E-01 -.860E+00 0.154E+00   0.588E-06 -.120E-04 -.668E-06
   0.398E+00 -.420E+02 0.162E+02   -.380E+00 0.429E+02 -.164E+02   -.167E-01 -.860E+00 0.154E+00   0.588E-06 -.120E-04 -.668E-06
   0.398E+00 -.420E+02 0.162E+02   -.380E+00 0.429E+02 -.164E+02   -.167E-01 -.860E+00 0.154E+00   0.588E-06 -.120E-04 -.668E-06
   0.398E+00 -.420E+02 0.162E+02   -.380E+00 0.429E+02 -.164E+02   -.167E-01 -.860E+00 0.154E+00   0.588E-06 -.120E-04 -.668E-06
   -.398E+00 0.420E+02 0.162E+02   0.380E+00 -.429E+02 -.164E+02   0.167E-01 0.860E+00 0.154E+00   -.588E-06 0.120E-04 -.668E-06
   -.398E+00 0.420E+02 0.162E+02   0.380E+00 -.429E+02 -.164E+02   0.167E-01 0.860E+00 0.154E+00   -.588E-06 0.120E-04 -.668E-06
   -.398E+00 0.420E+02 0.162E+02   0.380E+00 -.429E+02 -.164E+02   0.167E-01 0.860E+00 0.154E+00   -.588E-06 0.120E-04 -.668E-06
   -.398E+00 0.420E+02 0.162E+02   0.380E+00 -.429E+02 -.164E+02   0.167E-01 0.860E+00 0.154E+00   -.588E-06 0.120E-04 -.668E-06
   -.113E-06 0.860E-07 -.190E+02   -.232E-12 -.163E-12 0.182E+02   0.504E-25 0.808E-26 0.770E+00   -.322E-12 0.276E-12 0.169E-04
   -.113E-06 0.860E-07 -.190E+02   -.261E-12 -.171E-12 0.182E+02   -.473E-25 0.291E-25 0.770E+00   -.347E-12 0.873E-13 0.169E-04
   -.113E-06 0.860E-07 -.190E+02   -.260E-12 -.171E-12 0.182E+02   -.113E-25 -.258E-25 0.770E+00   -.205E-12 -.901E-13 0.169E-04
   -.113E-06 0.860E-07 -.190E+02   -.289E-12 -.171E-12 0.182E+02   -.112E-25 0.202E-25 0.770E+00   -.456E-12 -.119E-12 0.169E-04
   0.860E-07 -.113E-06 -.190E+02   0.000E+00 0.000E+00 0.182E+02   -.414E-25 -.355E-25 0.770E+00   -.335E-12 0.323E-12 0.169E-04
   0.860E-07 -.113E-06 -.190E+02   0.000E+00 -.568E-13 0.182E+02   0.727E-26 0.129E-25 0.770E+00   -.831E-13 0.279E-12 0.169E-04
   0.860E-07 -.113E-06 -.190E+02   0.000E+00 -.568E-13 0.182E+02   0.116E-25 -.485E-26 0.770E+00   -.296E-12 0.129E-13 0.169E-04
   0.860E-07 -.113E-06 -.190E+02   0.284E-13 -.568E-13 0.182E+02   -.571E-26 -.606E-25 0.770E+00   -.248E-13 -.118E-13 0.169E-04
   -.113E-06 0.860E-07 -.190E+02   -.320E-12 -.131E-12 0.182E+02   0.552E-25 0.129E-25 0.770E+00   -.435E-12 0.162E-12 0.169E-04
   -.113E-06 0.860E-07 -.190E+02   -.291E-12 -.746E-13 0.182E+02   -.213E-25 -.258E-25 0.770E+00   -.137E-12 0.197E-12 0.169E-04
   -.113E-06 0.860E-07 -.190E+02   -.313E-12 -.653E-13 0.182E+02   -.121E-25 -.969E-26 0.770E+00   -.365E-12 0.654E-14 0.169E-04
   -.113E-06 0.860E-07 -.190E+02   -.341E-12 -.724E-13 0.182E+02   0.184E-25 -.388E-25 0.770E+00   -.248E-12 0.100E-12 0.169E-04
   0.860E-07 -.113E-06 -.190E+02   -.951E-13 -.811E-14 0.182E+02   -.527E-25 0.388E-25 0.770E+00   -.126E-12 0.229E-12 0.169E-04
   0.860E-07 -.113E-06 -.190E+02   -.640E-13 -.818E-14 0.182E+02   0.108E-25 -.364E-25 0.770E+00   -.373E-12 0.165E-12 0.169E-04
   0.860E-07 -.113E-06 -.190E+02   -.668E-13 -.562E-14 0.182E+02   -.186E-25 -.517E-25 0.770E+00   -.114E-12 0.212E-13 0.169E-04
   0.860E-07 -.113E-06 -.190E+02   -.925E-13 -.568E-14 0.182E+02   -.836E-26 0.170E-25 0.770E+00   -.341E-12 0.130E-12 0.169E-04
   0.608E-07 -.669E-07 -.154E+02   0.173E-12 -.533E-13 0.145E+02   0.141E-25 0.129E-25 0.916E+00   0.893E-13 0.200E-12 0.884E-05
   0.608E-07 -.669E-07 -.154E+02   0.148E-12 -.568E-13 0.145E+02   0.525E-26 -.388E-25 0.916E+00   -.179E-12 0.163E-12 0.884E-05
   0.608E-07 -.669E-07 -.154E+02   0.173E-12 -.426E-13 0.145E+02   0.316E-25 0.775E-25 0.916E+00   0.126E-12 -.673E-13 0.884E-05
   0.608E-07 -.668E-07 -.154E+02   0.177E-12 -.426E-13 0.145E+02   0.133E-25 0.242E-25 0.916E+00   -.197E-12 0.325E-13 0.884E-05
   -.669E-07 0.608E-07 -.154E+02   0.206E-12 -.249E-13 0.145E+02   -.713E-25 -.646E-26 0.916E+00   -.108E-12 0.141E-12 0.884E-05
   -.669E-07 0.608E-07 -.154E+02   0.199E-12 0.355E-14 0.145E+02   0.456E-25 -.258E-25 0.916E+00   0.863E-15 0.862E-13 0.884E-05
   -.669E-07 0.608E-07 -.154E+02   0.206E-12 -.178E-13 0.145E+02   -.412E-25 -.226E-25 0.916E+00   -.136E-12 0.213E-13 0.884E-05
   -.669E-07 0.608E-07 -.154E+02   0.231E-12 -.178E-13 0.145E+02   0.282E-25 -.454E-27 0.916E+00   0.351E-13 0.177E-13 0.884E-05
   0.608E-07 -.669E-07 -.154E+02   0.142E-12 0.266E-14 0.145E+02   -.929E-26 -.258E-25 0.916E+00   -.119E-12 0.162E-12 0.884E-05
   0.608E-07 -.669E-07 -.154E+02   0.711E-13 0.666E-14 0.145E+02   0.102E-25 0.969E-26 0.916E+00   0.150E-12 0.131E-12 0.884E-05
   0.608E-07 -.669E-07 -.154E+02   0.142E-12 -.413E-13 0.145E+02   0.646E-26 0.646E-25 0.916E+00   -.654E-13 0.229E-13 0.884E-05
   0.608E-07 -.668E-07 -.154E+02   0.995E-13 -.444E-13 0.145E+02   -.990E-26 0.258E-25 0.916E+00   0.407E-13 0.184E-12 0.884E-05
   -.669E-07 0.608E-07 -.154E+02   0.203E-12 0.265E-13 0.145E+02   -.156E-25 -.166E-25 0.916E+00   -.443E-13 0.443E-13 0.884E-05
   -.669E-07 0.608E-07 -.154E+02   0.180E-12 0.270E-13 0.145E+02   -.211E-25 0.646E-26 0.916E+00   -.189E-12 0.360E-13 0.884E-05
   -.669E-07 0.608E-07 -.154E+02   0.175E-12 0.110E-13 0.145E+02   -.170E-25 -.258E-25 0.916E+00   -.257E-13 0.278E-13 0.884E-05
   -.669E-07 0.608E-07 -.154E+02   0.166E-12 0.114E-13 0.145E+02   -.681E-25 0.646E-26 0.916E+00   -.164E-12 0.751E-13 0.884E-05
 -----------------------------------------------------------------------------------------------
   -.203E-06 -.203E-06 -.319E+02   0.131E-12 0.136E-12 -.398E-12   -.132E-14 0.111E-15 0.319E+02   -.338E-11 0.193E-11 0.390E-03
 
 
 POSITION                                       TOTAL-FORCE (eV/Angst)
 -----------------------------------------------------------------------------------
      1.35920      1.35076      1.27299         0.002459     -0.000880     -0.005213
      6.61116      1.48824      1.27299         0.002459     -0.000880     -0.005213
      1.49667      6.60272      1.27299         0.002459     -0.000880     -0.005213
      6.74864      6.74020      1.27299         0.002459     -0.000880     -0.005213
      4.03025      4.03869      1.27299        -0.002459      0.000880     -0.005213
      9.28221      4.17617      1.27299        -0.002459      0.000880     -0.005213
      4.16773      9.29065      1.27299        -0.002459      0.000880     -0.005213
      9.41969      9.42813      1.27299        -0.002459      0.000880     -0.005213
      1.41270      3.96151      9.09137         0.000880     -0.002459     -0.005213
      6.66467      4.09899      9.09137         0.000880     -0.002459     -0.005213
      1.55018      9.21347      9.09137         0.000880     -0.002459     -0.005213
      6.80215      9.35095      9.09137         0.000880     -0.002459     -0.005213
      3.97674      1.42793      9.09137        -0.000880      0.002459     -0.005213
      9.22870      1.56541      9.09137        -0.000880      0.002459     -0.005213
      4.11422      6.67990      9.09137        -0.000880      0.002459     -0.005213
      9.36618      6.81738      9.09137        -0.000880      0.002459     -0.005213
      1.33553      1.34397      6.48524        -0.002459      0.000880     -0.005213
      6.58749      1.48144      6.48524        -0.002459      0.000880     -0.005213
      1.47300      6.59593      6.48524        -0.002459      0.000880     -0.005213
      6.72497      6.73341      6.48524        -0.002459      0.000880     -0.005213
      4.05392      4.04548      6.48524         0.002459     -0.000880     -0.005213
      9.30588      4.18296      6.48524         0.002459     -0.000880     -0.005213
      4.19140      9.29744      6.48524         0.002459     -0.000880     -0.005213
      9.44336      9.43492      6.48524         0.002459     -0.000880     -0.005213
      3.96995      1.40427      3.87911         0.000880     -0.002459     -0.005213
      9.22191      1.54174      3.87911         0.000880     -0.002459     -0.005213
      4.10743      6.65623      3.87911         0.000880     -0.002459     -0.005213
      9.35939      6.79371      3.87911         0.000880     -0.002459     -0.005213
      1.41950      3.98518      3.87911        -0.000880      0.002459     -0.005213
      6.67146      4.12266      3.87911        -0.000880      0.002459     -0.005213
      1.55697      9.23714      3.87911        -0.000880      0.002459     -0.005213
      6.80894      9.37462      3.87911        -0.000880      0.002459     -0.005213
      0.00000      0.00000      5.23845         0.000000      0.000000      0.002385
      5.25197      0.13748      5.23845         0.000000      0.000000      0.002385
      0.13748      5.25197      5.23845         0.000000      0.000000      0.002385
      5.38944      5.38944      5.23845         0.000000      0.000000      0.002385
      2.62598      0.06874      2.63232         0.000000      0.000000      0.002385
      7.87795      0.20622      2.63232         0.000000      0.000000      0.002385
      2.76346      5.32070      2.63232         0.000000      0.000000      0.002385
      8.01543      5.45818      2.63232         0.000000      0.000000      0.002385
      2.69472      2.69472      0.02620         0.000000      0.000000      0.002385
      7.94669      2.83220      0.02620         0.000000      0.000000      0.002385
      2.83220      7.94669      0.02620         0.000000      0.000000      0.002385
      8.08417      8.08417      0.02620         0.000000      0.000000      0.002385
      0.06874      2.62598      7.84457         0.000000      0.000000      0.002385
      5.32070      2.76346      7.84457         0.000000      0.000000      0.002385
      0.20622      7.87795      7.84457         0.000000      0.000000      0.002385
      5.45818      8.01543      7.84457         0.000000      0.000000      0.002385
      0.00000      0.00000      0.03396         0.000000      0.000000      0.008042
      5.25197      0.13748      0.03396         0.000000      0.000000      0.008042
      0.13748      5.25197      0.03396         0.000000      0.000000      0.008042
      5.38944      5.38944      0.03396         0.000000      0.000000      0.008042
      2.62598      0.06874      7.85234         0.000000      0.000000      0.008042
      7.87795      0.20622      7.85234         0.000000      0.000000      0.008042
      2.76346      5.32070      7.85234         0.000000      0.000000      0.008042
      8.01543      5.45818      7.85234         0.000000      0.000000      0.008042
      2.69472      2.69472      5.24621         0.000000      0.000000      0.008042
      7.94669      2.83220      5.24621         0.000000      0.000000      0.008042
      2.83220      7.94669      5.24621         0.000000      0.000000      0.008042
      8.08417      8.08417      5.24621         0.000000      0.000000      0.008042
      0.06874      2.62598      2.64009         0.000000      0.000000      0.008042
      5.32070      2.76346      2.64009         0.000000      0.000000      0.008042
      0.20622      7.87795      2.64009         0.000000      0.000000      0.008042
      5.45818      8.01543      2.64009         0.000000      0.000000      0.008042
 -----------------------------------------------------------------------------------
    total drift:                               -0.000000     -0.000000     -0.001784


--------------------------------------------------------------------------------------------------------



  FREE ENERGIE OF THE ION-ELECTRON SYSTEM (eV)
  ---------------------------------------------------
  free  energy   TOTEN  =      -327.83112131 eV

  energy  without entropy=     -327.83112131  energy(sigma->0) =     -327.83112131
 


--------------------------------------------------------------------------------------------------------


    POTLOK:  cpu time    0.1293: real time    0.1300


--------------------------------------------------------------------------------------------------------


 writing wavefunctions
     LOOP+:  cpu time 3011.3132: real time 3032.6430
    4ORBIT:  cpu time    0.0000: real time    0.0000
 


 total charge     
 
# of ion       s       p       d       tot
------------------------------------------
    1        1.314   2.410   0.000   3.723
    2        1.314   2.410   0.000   3.723
    3        1.314   2.410   0.000   3.723
    4        1.314   2.410   0.000   3.723
    5        1.314   2.410   0.000   3.723
    6        1.314   2.410   0.000   3.723
    7        1.314   2.410   0.000   3.723
    8        1.314   2.410   0.000   3.723
    9        1.314   2.410   0.000   3.724
   10        1.314   2.410   0.000   3.724
   11        1.314   2.410   0.000   3.724
   12        1.314   2.410   0.000   3.724
   13        1.314   2.410   0.000   3.724
   14        1.314   2.410   0.000   3.724
   15        1.314   2.410   0.000   3.724
   16        1.314   2.410   0.000   3.724
   17        1.314   2.410   0.000   3.723
   18        1.314   2.410   0.000   3.723
   19        1.314   2.410   0.000   3.723
   20        1.314   2.410   0.000   3.723
   21        1.314   2.410   0.000   3.723
   22        1.314   2.410   0.000   3.723
   23        1.314   2.410   0.000   3.723
   24        1.314   2.410   0.000   3.723
   25        1.314   2.410   0.000   3.724
   26        1.314   2.410   0.000   3.724
   27        1.314   2.410   0.000   3.724
   28        1.314   2.410   0.000   3.724
   29        1.314   2.410   0.000   3.724
   30        1.314   2.410   0.000   3.724
   31        1.314   2.410   0.000   3.724
   32        1.314   2.410   0.000   3.724
   33        0.259   6.202   8.916  15.378
   34        0.259   6.202   8.916  15.378
   35        0.259   6.202   8.916  15.378
   36        0.259   6.202   8.916  15.378
   37        0.259   6.202   8.917  15.378
   38        0.259   6.202   8.917  15.378
   39        0.259   6.202   8.917  15.378
   40        0.259   6.202   8.917  15.378
   41        0.259   6.202   8.916  15.378
   42        0.259   6.202   8.916  15.378
   43        0.259   6.202   8.916  15.378
   44        0.259   6.202   8.916  15.378
   45        0.259   6.202   8.917  15.378
   46        0.259   6.202   8.917  15.378
   47        0.259   6.202   8.917  15.378
   48        0.259   6.202   8.917  15.378
   49        0.350   6.350   5.821  12.520
   50        0.350   6.350   5.821  12.520
   51        0.350   6.350   5.821  12.520
   52        0.350   6.350   5.821  12.520
   53        0.350   6.350   5.821  12.521
   54        0.350   6.350   5.821  12.521
   55        0.350   6.350   5.821  12.521
   56        0.350   6.350   5.821  12.521
   57        0.350   6.350   5.821  12.520
   58        0.350   6.350   5.821  12.520
   59        0.350   6.350   5.821  12.520
   60        0.350   6.350   5.821  12.520
   61        0.350   6.350   5.821  12.521
   62        0.350   6.350   5.821  12.521
   63        0.350   6.350   5.821  12.521
   64        0.350   6.350   5.821  12.521
--------------------------------------------------
tot         51.786 277.942 235.793 565.521
 


 magnetization (x)
 
# of ion       s       p       d       tot
------------------------------------------
    1       -0.001  -0.013   0.000  -0.013
    2       -0.001  -0.013   0.000  -0.013
    3       -0.001  -0.013   0.000  -0.013
    4       -0.001  -0.013   0.000  -0.013
    5       -0.001  -0.013   0.000  -0.013
    6       -0.001  -0.013   0.000  -0.013
    7       -0.001  -0.013   0.000  -0.013
    8       -0.001  -0.013   0.000  -0.013
    9        0.001   0.013   0.000   0.013
   10        0.001   0.013   0.000   0.013
   11        0.001   0.013   0.000   0.013
   12        0.001   0.013   0.000   0.013
   13        0.001   0.013   0.000   0.013
   14        0.001   0.013   0.000   0.013
   15        0.001   0.013   0.000   0.013
   16        0.001   0.013   0.000   0.013
   17       -0.001  -0.013   0.000  -0.013
   18       -0.001  -0.013   0.000  -0.013
   19       -0.001  -0.013   0.000  -0.013
   20       -0.001  -0.013   0.000  -0.013
   21       -0.001  -0.013   0.000  -0.013
   22       -0.001  -0.013   0.000  -0.013
   23       -0.001  -0.013   0.000  -0.013
   24       -0.001  -0.013   0.000  -0.013
   25        0.001   0.013   0.000   0.013
   26        0.001   0.013   0.000   0.013
   27        0.001   0.013   0.000   0.013
   28        0.001   0.013   0.000   0.013
   29        0.001   0.013   0.000   0.013
   30        0.001   0.013   0.000   0.013
   31        0.001   0.013   0.000   0.013
   32        0.001   0.013   0.000   0.013
   33        0.000   0.000   0.000   0.001
   34        0.000   0.000   0.000   0.001
   35        0.000   0.000   0.000   0.001
   36        0.000   0.000   0.000   0.001
   37       -0.000  -0.000  -0.000  -0.001
   38       -0.000  -0.000  -0.000  -0.001
   39       -0.000  -0.000  -0.000  -0.001
   40       -0.000  -0.000  -0.000  -0.001
   41        0.000   0.000   0.000   0.001
   42        0.000   0.000   0.000   0.001
   43        0.000   0.000   0.000   0.001
   44        0.000   0.000   0.000   0.001
   45       -0.000  -0.000  -0.000  -0.001
   46       -0.000  -0.000  -0.000  -0.001
   47       -0.000  -0.000  -0.000  -0.001
   48       -0.000  -0.000  -0.000  -0.001
   49        0.020   0.054   3.670   3.743
   50        0.020   0.054   3.670   3.743
   51        0.020   0.054   3.670   3.743
   52        0.020   0.054   3.670   3.743
   53       -0.020  -0.054  -3.670  -3.743
   54       -0.020  -0.054  -3.670  -3.743
   55       -0.020  -0.054  -3.670  -3.743
   56       -0.020  -0.054  -3.670  -3.743
   57        0.020   0.054   3.670   3.743
   58        0.020   0.054   3.670   3.743
   59        0.020   0.054   3.670   3.743
   60        0.020   0.054   3.670   3.743
   61       -0.020  -0.054  -3.670  -3.743
   62       -0.020  -0.054  -3.670  -3.743
   63       -0.020  -0.054  -3.670  -3.743
   64       -0.020  -0.054  -3.670  -3.743
--------------------------------------------------
tot         -0.001   0.001  -0.001  -0.001
 
 BZINTS: Fermi energy:  4.933568;688.000000 electrons
         Band energy:***********;  BLOECHL correction:  0.000000

 total amount of memory used by VASP MPI-rank0   300225. kBytes
=======================================================================

   base      :      30000. kBytes
   nonl-proj :     174956. kBytes
   fftplans  :       4588. kBytes
   grid      :      69719. kBytes
   one-center:       1990. kBytes
   wavefun   :      18972. kBytes
 
  
  
 General timing and accounting informations for this job:
 ========================================================
  
                  Total CPU time used (sec):     3055.378
                            User time (sec):     3045.380
                          System time (sec):        9.998
                         Elapsed time (sec):     3077.870
  
                   Maximum memory used (kb):      665064.
                   Average memory used (kb):           0.
  
                          Minor page faults:       625465
                          Major page faults:         5734
                 Voluntary context switches:         7165
