       N       E                     dE             d eps       ncg     rms          rms(c)
DAV:   1     0.604753268330E+04    0.60475E+04   -0.51574E+05 16384   0.196E+03
DAV:   2    -0.766645504642E+02   -0.61242E+04   -0.60141E+04 17920   0.445E+02
DAV:   3    -0.324411531651E+03   -0.24775E+03   -0.24683E+03 23040   0.972E+01
DAV:   4    -0.327806523901E+03   -0.33950E+01   -0.33948E+01 19456   0.115E+01
DAV:   5    -0.327909403394E+03   -0.10288E+00   -0.10288E+00 21760   0.196E+00    0.370E+00
DAV:   6    -0.327752064525E+03    0.15734E+00   -0.20024E-01 23040   0.146E+00    0.200E+00
DAV:   7    -0.327709546719E+03    0.42518E-01   -0.17911E-01 25856   0.120E+00    0.133E+00
DAV:   8    -0.327705940031E+03    0.36067E-02   -0.19786E-01 21504   0.124E+00    0.123E+00
DAV:   9    -0.327700333737E+03    0.56063E-02   -0.53317E-02 21504   0.646E-01    0.354E-01
DAV:  10    -0.327700708262E+03   -0.37453E-03   -0.28210E-03 21760   0.845E-02    0.230E-01
DAV:  11    -0.327700973361E+03   -0.26510E-03   -0.13122E-03 21504   0.740E-02    0.108E-01
DAV:  12    -0.327701170568E+03   -0.19721E-03   -0.60903E-04 20224   0.370E-02    0.441E-02
DAV:  13    -0.327701199628E+03   -0.29060E-04   -0.77052E-05 20736   0.209E-02    0.286E-02
DAV:  14    -0.327701218583E+03   -0.18955E-04   -0.40248E-05 21248   0.819E-03    0.173E-02
DAV:  15    -0.327701235008E+03   -0.16425E-04   -0.59269E-05 20992   0.689E-03    0.806E-03
DAV:  16    -0.327701238387E+03   -0.33792E-05   -0.10324E-05 19968   0.370E-03    0.577E-03
DAV:  17    -0.327701240035E+03   -0.16477E-05   -0.91849E-06 19968   0.279E-03    0.253E-03
DAV:  18    -0.327701240245E+03   -0.21006E-06   -0.16707E-06 20480   0.142E-03    0.133E-03
DAV:  19    -0.327701240259E+03   -0.14785E-07   -0.10966E-07 19456   0.424E-04    0.984E-04
DAV:  20    -0.327701240270E+03   -0.10434E-07   -0.52427E-08 16384   0.260E-04    0.386E-04
DAV:  21    -0.327701240280E+03   -0.10550E-07   -0.13398E-08 15872   0.167E-04    0.219E-04
DAV:  22    -0.327701240281E+03   -0.30559E-09   -0.25238E-09 13312   0.906E-05
   1 F= -.32770124E+03 E0= -.32770124E+03  d E =0.000000E+00  mag=     0.0000
