 vasp.5.4.4.18Apr17-6-g9f103f2a35 (build Oct 30 2023 17:30:16) complex          
  
 executed on             LinuxIFC date 2024.06.30  21:44:53
 running on  256 total cores
 distrk:  each k-point on  256 cores,    1 groups
 distr:  one band on NCORES_PER_BAND=   1 cores,  256 groups


--------------------------------------------------------------------------------------------------------


 INCAR:
 POTCAR:    PAW_PBE S 06Sep2000                   
 POTCAR:     PAW_PBE Cu_pv 06Sep2000              
 POTCAR:     PAW_PBE Fe_pv 02Aug2007              

 ----------------------------------------------------------------------------- 
|                                                                             |
|           W    W    AA    RRRRR   N    N  II  N    N   GGGG   !!!           |
|           W    W   A  A   R    R  NN   N  II  NN   N  G    G  !!!           |
|           W    W  A    A  R    R  N N  N  II  N N  N  G       !!!           |
|           W WW W  AAAAAA  RRRRR   N  N N  II  N  N N  G  GGG   !            |
|           WW  WW  A    A  R   R   N   NN  II  N   NN  G    G                |
|           W    W  A    A  R    R  N    N  II  N    N   GGGG   !!!           |
|                                                                             |
|      For optimal performance we recommend to set                            |
|        NCORE= 4 - approx SQRT( number of cores)                             |
|      NCORE specifies how many cores store one orbital (NPAR=cpu/NCORE).     |
|      This setting can  greatly improve the performance of VASP for DFT.     |
|      The default,   NCORE=1            might be grossly inefficient         |
|      on modern multi-core architectures or massively parallel machines.     |
|      Do your own testing !!!!                                               |
|      Unfortunately you need to use the default for GW and RPA calculations. |
|      (for HF NCORE is supported but not extensively tested yet)             |
|                                                                             |
 ----------------------------------------------------------------------------- 

 POTCAR:    PAW_PBE S 06Sep2000                   
   SHA256 =  0fc7481fb0695f01bdc6462160264c5c84044ae9ec85a907d398b887a2bc3132 S/
   COPYR  = (c) Copyright 06Sep2000 Georg Kresse                                
   COPYR  = This file is part of the software VASP. Any use, copying, and all ot
   COPYR  = If you do not have a valid VASP license, you may not use, copy or di
   VRHFIN =S : s2p4                                                             
   LEXCH  = PE                                                                  
   EATOM  =   276.8230 eV,   20.3459 Ry                                         
                                                                                
   TITEL  = PAW_PBE S 06Sep2000                                                 
   LULTRA =        F    use ultrasoft PP ?                                      
   IUNSCR =        1    unscreen: 0-lin 1-nonlin 2-no                           
   RPACOR =    1.500    partial core radius                                     
   POMASS =   32.066; ZVAL   =    6.000    mass and valenz                      
   RCORE  =    1.900    outmost cutoff radius                                   
   RWIGS  =    2.200; RWIGS  =    1.164    wigner-seitz radius (au A)           
   ENMAX  =  258.689; ENMIN  =  194.016 eV                                      
   ICORE  =        2    local potential                                         
   LCOR   =        T    correct aug charges                                     
   LPAW   =        T    paw PP                                                  
   EAUG   =  335.092                                                            
   DEXC   =    0.000                                                            
   RMAX   =    1.942    core radius for proj-oper                               
   RAUG   =    1.300    factor for augmentation sphere                          
   RDEP   =    1.954    radius for radial grids                                 
   RDEPT  =    1.744    core radius for aug-charge                              
                                                                                
   Atomic configuration                                                         
    6 entries                                                                   
     n  l   j            E        occ.                                          
     1  0  0.50     -2405.8406   2.0000                                         
     2  0  0.50      -211.7007   2.0000                                         
     2  1  1.50      -156.4958   6.0000                                         
     3  0  0.50       -17.2562   2.0000                                         
     3  1  0.50        -7.0085   4.0000                                         
     3  2  1.50        -6.8029   0.0000                                         
   Description                                                                  
     l       E           TYP  RCUT    TYP  RCUT                                 
     0    -17.2561641     23  1.900                                             
     0    -15.8743224     23  1.900                                             
     1     -7.0085400     23  1.900                                             
     1     -2.7779785     23  1.900                                             
     2     -6.8029130     23  1.900                                             
  local pseudopotential read in
  partial core-charges read in
  partial kinetic energy density read in
  atomic valenz-charges read in
  non local Contribution for L=           0  read in
    real space projection operators read in
  non local Contribution for L=           0  read in
    real space projection operators read in
  non local Contribution for L=           1  read in
    real space projection operators read in
  non local Contribution for L=           1  read in
    real space projection operators read in
    PAW grid and wavefunctions read in
 
   number of l-projection  operators is LMAX  =           4
   number of lm-projection operators is LMMAX =           8
 
 POTCAR:     PAW_PBE Cu_pv 06Sep2000              
   SHA256 =  cb7b504e2ea725fe1f25c85a9ac77d4012ce94cd394135b722c4e25ec297f1cb Cu
   COPYR  = (c) Copyright 06Sep2000 Georg Kresse                                
   COPYR  = This file is part of the software VASP. Any use, copying, and all ot
   COPYR  = If you do not have a valid VASP license, you may not use, copy or di
   VRHFIN =Cu: d10 p1                                                           
   LEXCH  = PE                                                                  
   EATOM  =  4120.1201 eV,  302.8203 Ry                                         
                                                                                
   TITEL  = PAW_PBE Cu_pv 06Sep2000                                             
   LULTRA =        F    use ultrasoft PP ?                                      
   IUNSCR =        1    unscreen: 0-lin 1-nonlin 2-no                           
   RPACOR =    1.500    partial core radius                                     
   POMASS =   63.546; ZVAL   =   17.000    mass and valenz                      
   RCORE  =    2.000    outmost cutoff radius                                   
   RWIGS  =    2.000; RWIGS  =    1.058    wigner-seitz radius (au A)           
   ENMAX  =  368.648; ENMIN  =  276.486 eV                                      
   RCLOC  =    1.304    cutoff for local pot                                    
   LCOR   =        T    correct aug charges                                     
   LPAW   =        T    paw PP                                                  
   EAUG   =  758.233                                                            
   DEXC   =    0.000                                                            
   RMAX   =    2.046    core radius for proj-oper                               
   RAUG   =    1.300    factor for augmentation sphere                          
   RDEP   =    2.025    radius for radial grids                                 
   RDEPT  =    1.558    core radius for aug-charge                              
                                                                                
   Atomic configuration                                                         
    8 entries                                                                   
     n  l   j            E        occ.                                          
     1  0  0.50     -8850.2467   2.0000                                         
     2  0  0.50     -1062.3498   2.0000                                         
     2  1  1.50      -916.8226   6.0000                                         
     3  0  0.50      -114.6929   2.0000                                         
     3  1  1.50       -72.1325   6.0000                                         
     3  2  2.50        -5.0394  10.0000                                         
     4  0  0.50        -4.6097   1.0000                                         
     4  3  2.50        -1.3606   0.0000                                         
   Description                                                                  
     l       E           TYP  RCUT    TYP  RCUT                                 
     1    -72.1324777     23  1.700                                             
     1     -1.3605826     23  1.700                                             
     2     -5.0393776     23  2.000                                             
     2     -6.3999602     23  2.000                                             
     0     -4.6097062     23  1.800                                             
     0     14.1620818     23  1.800                                             
  local pseudopotential read in
  partial core-charges read in
  partial kinetic energy density read in
  atomic valenz-charges read in
  non local Contribution for L=           1  read in
    real space projection operators read in
  non local Contribution for L=           1  read in
    real space projection operators read in
  non local Contribution for L=           2  read in
    real space projection operators read in
  non local Contribution for L=           2  read in
    real space projection operators read in
  non local Contribution for L=           0  read in
    real space projection operators read in
  non local Contribution for L=           0  read in
    real space projection operators read in
    PAW grid and wavefunctions read in
 
   number of l-projection  operators is LMAX  =           6
   number of lm-projection operators is LMMAX =          18
 
 POTCAR:     PAW_PBE Fe_pv 02Aug2007              
   SHA256 =  5d22e414b1f82158bf2c7ecb8b97b28fd0923e48cadc1c3bf74d524558f5dd32 Fe
   COPYR  = (c) Copyright 02Aug2007 Georg Kresse                                
   COPYR  = This file is part of the software VASP. Any use, copying, and all ot
   COPYR  = If you do not have a valid VASP license, you may not use, copy or di
   VRHFIN =Fe:  3pd7s1                                                          
   LEXCH  = PE                                                                  
   EATOM  =  2457.4239 eV,  180.6156 Ry                                         
                                                                                
   TITEL  = PAW_PBE Fe_pv 02Aug2007                                             
   LULTRA =        F    use ultrasoft PP ?                                      
   IUNSCR =        1    unscreen: 0-lin 1-nonlin 2-no                           
   RPACOR =    1.750    partial core radius                                     
   POMASS =   55.847; ZVAL   =   14.000    mass and valenz                      
   RCORE  =    2.200    outmost cutoff radius                                   
   RWIGS  =    2.200; RWIGS  =    1.164    wigner-seitz radius (au A)           
   ENMAX  =  293.238; ENMIN  =  219.928 eV                                      
   ICORE  =        3    local potential                                         
   LCOR   =        T    correct aug charges                                     
   LPAW   =        T    paw PP                                                  
   EAUG   =  578.342                                                            
   DEXC   =    0.000                                                            
   RMAX   =    2.249    core radius for proj-oper                               
   RAUG   =    1.300    factor for augmentation sphere                          
   RDEP   =    2.296    radius for radial grids                                 
   RDEPT  =    1.766    core radius for aug-charge                              
                                                                                
   Atomic configuration                                                         
    8 entries                                                                   
     n  l   j            E        occ.                                          
     1  0  0.50     -6993.8440   2.0000                                         
     2  0  0.50      -814.6047   2.0000                                         
     2  1  1.50      -693.3689   6.0000                                         
     3  0  0.50       -89.4732   2.0000                                         
     3  1  1.50       -55.6373   6.0000                                         
     3  2  2.50        -3.8151   7.0000                                         
     4  0  0.50        -4.2551   1.0000                                         
     4  3  2.50        -1.3606   0.0000                                         
   Description                                                                  
     l       E           TYP  RCUT    TYP  RCUT                                 
     1    -55.6372668     23  2.000                                             
     1     -5.4423304     23  2.000                                             
     2     -3.8151096     23  2.200                                             
     2     -5.1756922     23  2.200                                             
     0     -4.2550951     23  2.200                                             
     0     27.2116520     23  2.200                                             
     3     -1.3605826     23  2.200                                             
  local pseudopotential read in
  partial core-charges read in
  partial kinetic energy density read in
  atomic valenz-charges read in
  non local Contribution for L=           1  read in
    real space projection operators read in
  non local Contribution for L=           1  read in
    real space projection operators read in
  non local Contribution for L=           2  read in
    real space projection operators read in
  non local Contribution for L=           2  read in
    real space projection operators read in
  non local Contribution for L=           0  read in
    real space projection operators read in
  non local Contribution for L=           0  read in
    real space projection operators read in
    PAW grid and wavefunctions read in
 
   number of l-projection  operators is LMAX  =           6
   number of lm-projection operators is LMMAX =          18
 

 ----------------------------------------------------------------------------- 
|                                                                             |
|  ADVICE TO THIS USER RUNNING 'VASP/VAMP'   (HEAR YOUR MASTER'S VOICE ...):  |
|                                                                             |
|      You have a (more or less) 'large supercell' and for larger cells       |
|      it might be more efficient to use real space projection opertators     |
|      So try LREAL= Auto  in the INCAR   file.                               |
|      Mind:          For very  accurate calculation you might also keep the  |
|      reciprocal projection scheme          (i.e. LREAL=.FALSE.)             |
|                                                                             |
 ----------------------------------------------------------------------------- 


 ----------------------------------------------------------------------------- 
|                                                                             |
|  ADVICE TO THIS USER RUNNING 'VASP/VAMP'   (HEAR YOUR MASTER'S VOICE ...):  |
|                                                                             |
|      You enforced a specific xc-type in the INCAR file,                     |
|      a different type was found on the POTCAR file                          |
|          I HOPE YOU KNOW, WHAT YOU ARE  DOING                               |
|                                                                             |
 ----------------------------------------------------------------------------- 

  PAW_PBE S 06Sep2000                   :
 energy of atom  1       EATOM= -276.8230
 kinetic energy error for atom=    0.0007 (will be added to EATOM!!)
   PAW_PBE Cu_pv 06Sep2000              :
 energy of atom  2       EATOM=-4120.1201
 kinetic energy error for atom=    0.0094 (will be added to EATOM!!)
   PAW_PBE Fe_pv 02Aug2007              :
 energy of atom  3       EATOM=-2457.4239
 kinetic energy error for atom=    0.0025 (will be added to EATOM!!)
 
 
 POSCAR: Fe16 Cu16 S32                           
  positions in direct lattice
  No initial velocities read in
 exchange correlation table for  LEXCH =       14
   RHO(1)=    0.500       N(1)  =     2000
   RHO(2)=  100.500       N(2)  =     4000
 


--------------------------------------------------------------------------------------------------------


 ion  position               nearest neighbor table
   1  0.126  0.121  0.126-  41 2.26  61 2.27  37 2.27  49 2.29
   2  0.626  0.121  0.126-  42 2.26  62 2.27  38 2.27  50 2.29
   3  0.126  0.621  0.126-  43 2.26  63 2.27  39 2.27  51 2.29
   4  0.626  0.621  0.126-  44 2.26  64 2.27  40 2.27  52 2.29
   5  0.374  0.371  0.124-  39 2.26  52 2.27  41 2.27  62 2.29
   6  0.874  0.371  0.124-  40 2.26  51 2.27  42 2.27  61 2.29
   7  0.374  0.871  0.124-  37 2.26  50 2.27  43 2.27  64 2.29
   8  0.874  0.871  0.124-  38 2.26  49 2.27  44 2.27  63 2.29
   9  0.125  0.371  0.875-  41 2.27  45 2.27  51 2.27  55 2.27
  10  0.625  0.371  0.875-  42 2.27  46 2.27  52 2.27  56 2.27
  11  0.125  0.871  0.875-  43 2.27  47 2.27  49 2.27  53 2.27
  12  0.625  0.871  0.875-  44 2.27  48 2.27  50 2.27  54 2.27
  13  0.375  0.123  0.875-  41 2.26  46 2.26  50 2.28  53 2.28
  14  0.875  0.123  0.875-  42 2.26  45 2.26  49 2.28  54 2.28
  15  0.375  0.623  0.875-  43 2.26  48 2.26  52 2.28  55 2.28
  16  0.875  0.623  0.875-  44 2.26  47 2.26  51 2.28  56 2.28
  17  0.124  0.121  0.624-  45 2.26  57 2.27  33 2.27  53 2.29
  18  0.624  0.121  0.624-  46 2.26  58 2.27  34 2.27  54 2.29
  19  0.124  0.621  0.624-  47 2.26  59 2.27  35 2.27  55 2.29
  20  0.624  0.621  0.624-  48 2.26  60 2.27  36 2.27  56 2.29
  21  0.376  0.371  0.626-  36 2.26  55 2.27  46 2.27  57 2.29
  22  0.876  0.371  0.626-  35 2.26  56 2.27  45 2.27  58 2.29
  23  0.376  0.871  0.626-  34 2.26  53 2.27  48 2.27  59 2.29
  24  0.876  0.871  0.626-  33 2.26  54 2.27  47 2.27  60 2.29
  25  0.375  0.121  0.375-  34 2.27  37 2.27  57 2.27  62 2.27
  26  0.875  0.121  0.375-  33 2.27  38 2.27  58 2.27  61 2.27
  27  0.375  0.621  0.375-  36 2.27  39 2.27  59 2.27  64 2.27
  28  0.875  0.621  0.375-  35 2.27  40 2.27  60 2.27  63 2.27
  29  0.125  0.373  0.375-  35 2.26  39 2.26  57 2.28  61 2.28
  30  0.625  0.373  0.375-  36 2.26  40 2.26  58 2.28  62 2.28
  31  0.125  0.873  0.375-  33 2.26  37 2.26  59 2.28  63 2.28
  32  0.625  0.873  0.375-  34 2.26  38 2.26  60 2.28  64 2.28
  33  0.999  0.003  0.500-  24 2.26  31 2.26  26 2.27  17 2.27
  34  0.499  0.003  0.500-  23 2.26  32 2.26  25 2.27  18 2.27
  35  0.999  0.503  0.500-  22 2.26  29 2.26  28 2.27  19 2.27
  36  0.499  0.503  0.500-  21 2.26  30 2.26  27 2.27  20 2.27
  37  0.251  0.003  0.250-   7 2.26  31 2.26  25 2.27   1 2.27
  38  0.751  0.003  0.250-   8 2.26  32 2.26  26 2.27   2 2.27
  39  0.251  0.503  0.250-   5 2.26  29 2.26  27 2.27   3 2.27
  40  0.751  0.503  0.250-   6 2.26  30 2.26  28 2.27   4 2.27
  41  0.249  0.253  0.000-   1 2.26  13 2.26   9 2.27   5 2.27
  42  0.749  0.253  0.000-   2 2.26  14 2.26  10 2.27   6 2.27
  43  0.249  0.753  0.000-   3 2.26  15 2.26  11 2.27   7 2.27
  44  0.749  0.753  0.000-   4 2.26  16 2.26  12 2.27   8 2.27
  45  0.001  0.253  0.750-  17 2.26  14 2.26   9 2.27  22 2.27
  46  0.501  0.253  0.750-  18 2.26  13 2.26  10 2.27  21 2.27
  47  0.001  0.753  0.750-  19 2.26  16 2.26  11 2.27  24 2.27
  48  0.501  0.753  0.750-  20 2.26  15 2.26  12 2.27  23 2.27
  49  0.999  0.003  0.000-   8 2.27  11 2.27  14 2.28   1 2.29
  50  0.499  0.003  0.000-   7 2.27  12 2.27  13 2.28   2 2.29
  51  0.999  0.503  0.000-   6 2.27   9 2.27  16 2.28   3 2.29
  52  0.499  0.503  0.000-   5 2.27  10 2.27  15 2.28   4 2.29
  53  0.251  0.003  0.750-  23 2.27  11 2.27  13 2.28  17 2.29
  54  0.751  0.003  0.750-  24 2.27  12 2.27  14 2.28  18 2.29
  55  0.251  0.503  0.750-  21 2.27   9 2.27  15 2.28  19 2.29
  56  0.751  0.503  0.750-  22 2.27  10 2.27  16 2.28  20 2.29
  57  0.249  0.253  0.500-  17 2.27  25 2.27  29 2.28  21 2.29
  58  0.749  0.253  0.500-  18 2.27  26 2.27  30 2.28  22 2.29
  59  0.249  0.753  0.500-  19 2.27  27 2.27  31 2.28  23 2.29
  60  0.749  0.753  0.500-  20 2.27  28 2.27  32 2.28  24 2.29
  61  0.001  0.253  0.250-   1 2.27  26 2.27  29 2.28   6 2.29
  62  0.501  0.253  0.250-   2 2.27  25 2.27  30 2.28   5 2.29
  63  0.001  0.753  0.250-   3 2.27  28 2.27  31 2.28   8 2.29
  64  0.501  0.753  0.250-   4 2.27  27 2.27  32 2.28   7 2.29
 
  LATTYP: Found a simple monoclinic cell.
 ALAT       =    15.2543069867
 B/A-ratio  =     0.6896566989
 C/A-ratio  =     1.5672545482
 COS(beta)  =    -0.9540731144
  
  Lattice vectors:
  
 A1 = ( -10.8371650000,   0.0000000000, -10.7354430000)
 A2 = (   0.0000000000, -10.5202350000,   0.0000000000)
 A3 = (  11.1641650000,   0.0000000000,  21.1405850000)


Analysis of symmetry for initial positions (statically):
=====================================================================
 Subroutine PRICEL returns following result:
 
  LATTYP: Found a base centered monoclinic cell.
 ALAT       =    11.3641287852
 B/A-ratio  =     0.4628702824
 C/A-ratio  =     0.9160648568
 COS(beta)  =    -0.8049642837
  
  Lattice vectors:
  
 A1 = (  -2.4640412500,  -2.6300587500,   5.1199957500)
 A2 = (  -2.4640412500,   2.6300587500,   5.1199957500)
 A3 = (  -0.3270000000,   0.0000000000, -10.4051420000)
 
   8 primitive cells build up your supercell.
 

 Routine SETGRP: Setting up the symmetry group for a 
 simple monoclinic supercell.


 Subroutine GETGRP returns: Found  2 space group operations
 (whereof  1 operations were pure point group operations)
 out of a pool of  4 trial point group operations.


The static configuration has the point symmetry C_1 .
 The point group associated with its full space group is C_2 .


Analysis of symmetry for dynamics (positions and initial velocities):
=====================================================================
 Subroutine PRICEL returns following result:
 
  LATTYP: Found a base centered monoclinic cell.
 ALAT       =    11.3641287852
 B/A-ratio  =     0.4628702824
 C/A-ratio  =     0.9160648568
 COS(beta)  =    -0.8049642837
  
  Lattice vectors:
  
 A1 = (  -2.4640412500,  -2.6300587500,   5.1199957500)
 A2 = (  -2.4640412500,   2.6300587500,   5.1199957500)
 A3 = (  -0.3270000000,   0.0000000000, -10.4051420000)
 
   8 primitive cells build up your supercell.
 

 Routine SETGRP: Setting up the symmetry group for a 
 simple monoclinic supercell.


 Subroutine GETGRP returns: Found  2 space group operations
 (whereof  1 operations were pure point group operations)
 out of a pool of  4 trial point group operations.


The dynamic configuration has the point symmetry C_1 .
 The point group associated with its full space group is C_2 .


Analysis of structural, dynamic, and magnetic symmetry:
=====================================================================
 Subroutine PRICEL returns following result:
 
  LATTYP: Found a base centered monoclinic cell.
 ALAT       =    11.3641287852
 B/A-ratio  =     0.4628702824
 C/A-ratio  =     0.9160648568
 COS(beta)  =    -0.8049642837
  
  Lattice vectors:
  
 A1 = (  -2.4640412500,  -2.6300587500,   5.1199957500)
 A2 = (  -2.4640412500,   2.6300587500,   5.1199957500)
 A3 = (  -0.3270000000,   0.0000000000, -10.4051420000)
 
   8 primitive cells build up your supercell.
 

 Routine SETGRP: Setting up the symmetry group for a 
 simple monoclinic supercell.


 Subroutine GETGRP returns: Found  2 space group operations
 (whereof  1 operations were pure point group operations)
 out of a pool of  4 trial point group operations.


The magnetic configuration has the point symmetry C_1 .
 The point group associated with its full space group is C_2 .


 Subroutine INISYM returns: Found  2 space group operations
 (whereof  1 operations are pure point group operations),
 and found     8 'primitive' translations

 
 
 KPOINTS: Automatic mesh                          

Automatic generation of k-mesh.
Space group operators:
 irot       det(A)        alpha          n_x          n_y          n_z        tau_x        tau_y        tau_z
    1     1.000000     0.000000     1.000000     0.000000     0.000000     0.000000     0.000000     0.000000
    2     1.000000   179.999999     0.000000     1.000000     0.000000    -0.250000     0.000000    -0.250000
 
 Subroutine IBZKPT returns following result:
 ===========================================
 
 Found      8 irreducible k-points:
 
 Following reciprocal coordinates:
            Coordinates               Weight
  0.000000  0.000000  0.000000      1.000000
  0.500000  0.000000  0.000000      1.000000
  0.000000  0.500000  0.000000      1.000000
  0.500000  0.500000  0.000000      1.000000
  0.000000  0.000000  0.500000      1.000000
  0.500000  0.000000  0.500000      1.000000
  0.000000  0.500000  0.500000      1.000000
  0.500000  0.500000  0.500000      1.000000
 
 Following cartesian coordinates:
            Coordinates               Weight
  0.000000  0.000000  0.000000      1.000000
  0.047620  0.000000 -0.001497      1.000000
  0.000000  0.047527  0.000000      1.000000
  0.047620  0.047527 -0.001497      1.000000
 -0.001512  0.000000  0.048101      1.000000
  0.046108  0.000000  0.046604      1.000000
 -0.001512  0.047527  0.048101      1.000000
  0.046108  0.047527  0.046604      1.000000
 
 TETIRR: Found     24 inequivalent tetrahedra from       48
 
 Subroutine IBZKPT_HF returns following result:
 ==============================================
 
 Found      8 k-points in 1st BZ
 the following      8 k-points will be used (e.g. in the exchange kernel)
 Following reciprocal coordinates:   # in IRBZ
  0.000000  0.000000  0.000000    0.12500000   1 t-inv F
  0.500000  0.000000  0.000000    0.12500000   2 t-inv F
  0.000000  0.500000  0.000000    0.12500000   3 t-inv F
  0.500000  0.500000  0.000000    0.12500000   4 t-inv F
  0.000000  0.000000  0.500000    0.12500000   5 t-inv F
  0.500000  0.000000  0.500000    0.12500000   6 t-inv F
  0.000000  0.500000  0.500000    0.12500000   7 t-inv F
  0.500000  0.500000  0.500000    0.12500000   8 t-inv F


--------------------------------------------------------------------------------------------------------




 Dimension of arrays:
   k-points           NKPTS =      8   k-points in BZ     NKDIM =      8   number of bands    NBANDS=    512
   number of dos      NEDOS =    301   number of ions     NIONS =     64
   non local maximal  LDIM  =      6   non local SUM 2l+1 LMDIM =     18
   total plane-waves  NPLWV = 829440
   max r-space proj   IRMAX =      1   max aug-charges    IRDMAX=  22933
   dimension x,y,z NGX =    96 NGY =   96 NGZ =   90
   dimension x,y,z NGXF=   192 NGYF=  192 NGZF=  180
   support grid    NGXF=   192 NGYF=  192 NGZF=  180
   ions per type =              32  16  16
   NGX,Y,Z   is equivalent  to a cutoff of  15.18, 15.17, 14.37 a.u.
   NGXF,Y,Z  is equivalent  to a cutoff of  30.35, 30.34, 28.74 a.u.

 SYSTEM =  CuFeS2                                  
 POSCAR =  Fe16 Cu16 S32                           

 Startparameter for this run:
   NWRITE =      2    write-flag & timer
   PREC   = accura    normal or accurate (medium, high low for compatibility)
   ISTART =      0    job   : 0-new  1-cont  2-samecut
   ICHARG =      1    charge: 1-file 2-atom 10-const
   ISPIN  =      2    spin polarized calculation?
   LNONCOLLINEAR =      F non collinear calculations
   LSORBIT =      F    spin-orbit coupling
   INIWAV =      1    electr: 0-lowe 1-rand  2-diag
   LASPH  =      F    aspherical Exc in radial PAW
   METAGGA=      F    non-selfconsistent MetaGGA calc.

 Electronic Relaxation 1
   ENCUT  =  700.0 eV  51.45 Ry    7.17 a.u.  22.68 22.70 22.46*2*pi/ulx,y,z
   ENINI  =  700.0     initial cutoff
   ENAUG  =  758.2 eV  augmentation charge cutoff
   NELM   =    500;   NELMIN=  2; NELMDL= -5     # of ELM steps 
   EDIFF  = 0.1E-07   stopping-criterion for ELM
   LREAL  =      F    real-space projection
   NLSPLINE    = F    spline interpolate recip. space projectors
   LCOMPAT=      F    compatible to vasp.4.4
   GGA_COMPAT  = T    GGA compatible to vasp.4.4-vasp.4.6
   LMAXPAW     = -100 max onsite density
   LMAXMIX     =    4 max onsite mixed and CHGCAR
   VOSKOWN=      0    Vosko Wilk Nusair interpolation
   ROPT   =    0.00000   0.00000   0.00000
 Ionic relaxation
   EDIFFG = -.1E-04   stopping-criterion for IOM
   NSW    =      0    number of steps for IOM
   NBLOCK =      1;   KBLOCK =      1    inner block; outer block 
   IBRION =     -1    ionic relax: 0-MD 1-quasi-New 2-CG
   NFREE  =      0    steps in history (QN), initial steepest desc. (CG)
   ISIF   =      2    stress and relaxation
   IWAVPR =     10    prediction:  0-non 1-charg 2-wave 3-comb
   ISYM   =      2    0-nonsym 1-usesym 2-fastsym
   LCORR  =      T    Harris-Foulkes like correction to forces

   POTIM  = 0.5000    time-step for ionic-motion
   TEIN   =    0.0    initial temperature
   TEBEG  =    0.0;   TEEND  =   0.0 temperature during run
   SMASS  =  -3.00    Nose mass-parameter (am)
   estimated Nose-frequenzy (Omega)   =  0.10E-29 period in steps =****** mass=  -0.253E-26a.u.
   SCALEE = 1.0000    scale energy and forces
   NPACO  =    256;   APACO  = 16.0  distance and # of slots for P.C.
   PSTRESS=    0.0 pullay stress

  Mass of Ions in am
   POMASS =  32.07 63.55 55.85
  Ionic Valenz
   ZVAL   =   6.00 17.00 14.00
  Atomic Wigner-Seitz radii
   RWIGS  =  -1.00 -1.00 -1.00
  virtual crystal weights 
   VCA    =   1.00  1.00  1.00
   NELECT =     688.0000    total number of electrons
   NUPDOWN=      -1.0000    fix difference up-down

 DOS related values:
   EMIN   =  10.00;   EMAX   =-10.00  energy-range for DOS
   EFERMI =   0.00
   ISMEAR =    -5;   SIGMA  =   0.03  broadening in eV -4-tet -1-fermi 0-gaus

 Electronic relaxation 2 (details)
   IALGO  =     38    algorithm
   LDIAG  =      T    sub-space diagonalisation (order eigenvalues)
   LSUBROT=      F    optimize rotation matrix (better conditioning)
   TURBO    =      0    0=normal 1=particle mesh
   IRESTART =      0    0=no restart 2=restart with 2 vectors
   NREBOOT  =      0    no. of reboots
   NMIN     =      0    reboot dimension
   EREF     =   0.00    reference energy to select bands
   IMIX   =      4    mixing-type and parameters
     AMIX     =   0.40;   BMIX     =  1.00
     AMIX_MAG =   1.60;   BMIX_MAG =  1.00
     AMIN     =   0.10
     WC   =   100.;   INIMIX=   1;  MIXPRE=   1;  MAXMIX= -45

 Intra band minimization:
   WEIMIN = 0.0000     energy-eigenvalue tresh-hold
   EBREAK =  0.49E-11  absolut break condition
   DEPER  =   0.30     relativ break condition  

   TIME   =   0.40     timestep for ELM

  volume/ion in A,a.u.               =      17.96       121.19
  Fermi-wavevector in a.u.,A,eV,Ry     =   1.379705  2.607265 25.899873  1.903587
  Thomas-Fermi vector in A             =   2.504650
 
 Write flags
   LWAVE        =      T    write WAVECAR
   LDOWNSAMPLE  =      F    k-point downsampling of WAVECAR
   LCHARG       =      T    write CHGCAR
   LVTOT        =      F    write LOCPOT, total local potential
   LVHAR        =      F    write LOCPOT, Hartree potential only
   LELF         =      F    write electronic localiz. function (ELF)
   LORBIT       =     11    0 simple, 1 ext, 2 COOP (PROOUT), +10 PAW based schemes


 Dipole corrections
   LMONO  =      F    monopole corrections only (constant potential shift)
   LDIPOL =      F    correct potential (dipole corrections)
   IDIPOL =      0    1-x, 2-y, 3-z, 4-all directions 
   EPSILON=  1.0000000 bulk dielectric constant

 LDA+U is selected, type is set to LDAUTYPE =  2
   angular momentum for each species LDAUL =     2    2    2
   U (eV)           for each species LDAUU =   0.0  0.1  4.7
   J (eV)           for each species LDAUJ =   0.0  0.0  0.0
 Exchange correlation treatment:
   GGA     =    PS    GGA type
   LEXCH   =    14    internal setting for exchange type
   VOSKOWN=      0    Vosko Wilk Nusair interpolation
   LHFCALC =     F    Hartree Fock is set to
   LHFONE  =     F    Hartree Fock one center treatment
   AEXX    =    0.0000 exact exchange contribution

 Linear response parameters
   LEPSILON=     F    determine dielectric tensor
   LRPA    =     F    only Hartree local field effects (RPA)
   LNABLA  =     F    use nabla operator in PAW spheres
   LVEL    =     F    velocity operator in full k-point grid
   LINTERFAST=   F  fast interpolation
   KINTER  =     0    interpolate to denser k-point grid
   CSHIFT  =0.1000    complex shift for real part using Kramers Kronig
   OMEGAMAX=  -1.0    maximum frequency
   DEG_THRESHOLD= 0.2000000E-02 threshold for treating states as degnerate
   RTIME   =   -0.100 relaxation time in fs
  (WPLASMAI=    0.000 imaginary part of plasma frequency in eV, 0.658/RTIME)
   DFIELD  = 0.0000000 0.0000000 0.0000000 field for delta impulse in time
 
 Orbital magnetization related:
   ORBITALMAG=     F  switch on orbital magnetization
   LCHIMAG   =     F  perturbation theory with respect to B field
   DQ        =  0.001000  dq finite difference perturbation B field
   LLRAUG    =     F  two centre corrections for induced B field

 PEAD related settings:
   LPEAD      =     T    switch on PEAD
   IPEAD      =     4    finite difference order for dpsi/dk
   LCALCPOL   =     T    calculate macroscopic polarization
   LCALCEPS   =     F    calculate dielectric tensor
   EFIELD_PEAD=    0.0000    0.0000    0.0000
   SKIP_EDOTP =     F
   LRPA       =     F
   SKIP_SCF   =     F


--------------------------------------------------------------------------------------------------------


 Static calculation
 charge density and potential will be updated during run
 spin polarized calculation
 Variant of blocked Davidson
 Davidson routine will perform the subspace rotation
 perform sub-space diagonalisation
    after iterative eigenvector-optimisation
 modified Broyden-mixing scheme, WC =      100.0
 initial mixing is a Kerker type mixing with AMIX =  0.4000 and BMIX =      1.0000
 Hartree-type preconditioning will be used
 using additional bands          168
 reciprocal scheme for non local part
 use partial core corrections
 calculate Harris-corrections to forces 
   (improved forces if not selfconsistent)
 use gradient corrections 
 use of overlap-Matrix (Vanderbilt PP)
 Fermi weights with tetrahedron method with Bloechl corrections


--------------------------------------------------------------------------------------------------------


  energy-cutoff  :      700.00
  volume of cell :     1149.35
      direct lattice vectors                 reciprocal lattice vectors
    10.510165000  0.000000000  0.330301000     0.095240048  0.000000000 -0.002993087
     0.000000000 10.520235000  0.000000000     0.000000000  0.095054911  0.000000000
     0.327000000  0.000000000 10.405142000    -0.003023302  0.000000000  0.096201342

  length of vectors
    10.515353873 10.520235000 10.410279009     0.095287068  0.095054911  0.096248836


 
 k-points in units of 2pi/SCALE and weight: Automatic mesh                          
   0.00000000  0.00000000  0.00000000       0.125
   0.04762002  0.00000000 -0.00149654       0.125
   0.00000000  0.04752746  0.00000000       0.125
   0.04762002  0.04752746 -0.00149654       0.125
  -0.00151165  0.00000000  0.04810067       0.125
   0.04610837  0.00000000  0.04660413       0.125
  -0.00151165  0.04752746  0.04810067       0.125
   0.04610837  0.04752746  0.04660413       0.125
 
 k-points in reciprocal lattice and weights: Automatic mesh                          
   0.00000000  0.00000000  0.00000000       0.125
   0.50000000  0.00000000  0.00000000       0.125
   0.00000000  0.50000000  0.00000000       0.125
   0.50000000  0.50000000  0.00000000       0.125
   0.00000000  0.00000000  0.50000000       0.125
   0.50000000  0.00000000  0.50000000       0.125
   0.00000000  0.50000000  0.50000000       0.125
   0.50000000  0.50000000  0.50000000       0.125
 
 position of ions in fractional coordinates (direct lattice) 
   0.12624200  0.12108500  0.12556900
   0.62624200  0.12108500  0.12556900
   0.12624200  0.62108500  0.12556900
   0.62624200  0.62108500  0.12556900
   0.37375800  0.37108500  0.12443100
   0.87375800  0.37108500  0.12443100
   0.37375800  0.87108500  0.12443100
   0.87375800  0.87108500  0.12443100
   0.12500000  0.37119800  0.87500000
   0.62500000  0.37119800  0.87500000
   0.12500000  0.87119800  0.87500000
   0.62500000  0.87119800  0.87500000
   0.37500000  0.12326200  0.87500000
   0.87500000  0.12326200  0.87500000
   0.37500000  0.62326200  0.87500000
   0.87500000  0.62326200  0.87500000
   0.12375800  0.12108500  0.62443100
   0.62375800  0.12108500  0.62443100
   0.12375800  0.62108500  0.62443100
   0.62375800  0.62108500  0.62443100
   0.37624200  0.37108500  0.62556900
   0.87624200  0.37108500  0.62556900
   0.37624200  0.87108500  0.62556900
   0.87624200  0.87108500  0.62556900
   0.37500000  0.12119800  0.37500000
   0.87500000  0.12119800  0.37500000
   0.37500000  0.62119800  0.37500000
   0.87500000  0.62119800  0.37500000
   0.12500000  0.37326200  0.37500000
   0.62500000  0.37326200  0.37500000
   0.12500000  0.87326200  0.37500000
   0.62500000  0.87326200  0.37500000
   0.99884500  0.00345200  0.50000900
   0.49884500  0.00345200  0.50000900
   0.99884500  0.50345200  0.50000900
   0.49884500  0.50345200  0.50000900
   0.25115500  0.00345200  0.24999100
   0.75115500  0.00345200  0.24999100
   0.25115500  0.50345200  0.24999100
   0.75115500  0.50345200  0.24999100
   0.24884500  0.25345200  0.00000900
   0.74884500  0.25345200  0.00000900
   0.24884500  0.75345200  0.00000900
   0.74884500  0.75345200  0.00000900
   0.00115500  0.25345200  0.74999100
   0.50115500  0.25345200  0.74999100
   0.00115500  0.75345200  0.74999100
   0.50115500  0.75345200  0.74999100
   0.99936700  0.00323300  0.00022600
   0.49936700  0.00323300  0.00022600
   0.99936700  0.50323300  0.00022600
   0.49936700  0.50323300  0.00022600
   0.25063300  0.00323300  0.74977400
   0.75063300  0.00323300  0.74977400
   0.25063300  0.50323300  0.74977400
   0.75063300  0.50323300  0.74977400
   0.24936700  0.25323300  0.50022600
   0.74936700  0.25323300  0.50022600
   0.24936700  0.75323300  0.50022600
   0.74936700  0.75323300  0.50022600
   0.00063300  0.25323300  0.24977400
   0.50063300  0.25323300  0.24977400
   0.00063300  0.75323300  0.24977400
   0.50063300  0.75323300  0.24977400
 
 position of ions in cartesian coordinates  (Angst):
   1.36788531  1.27384265  1.34826113
   6.62296781  1.27384265  1.51341163
   1.36788531  6.53396015  1.34826113
   6.62296781  6.53396015  1.51341163
   3.96894719  3.90390140  1.41817487
   9.22402969  3.90390140  1.58332537
   3.96894719  9.16401890  1.41817487
   9.22402969  9.16401890  1.58332537
   1.59989563  3.90509019  9.14578688
   6.85497813  3.90509019  9.31093737
   1.59989563  9.16520769  9.14578688
   6.85497813  9.16520769  9.31093737
   4.22743688  1.29674521  9.22836213
   9.48251938  1.29674521  9.39351262
   4.22743688  6.55686271  9.22836213
   9.48251938  6.55686271  9.39351262
   1.50490594  1.27384265  6.53817062
   6.75998844  1.27384265  6.70332112
   1.50490594  6.53396015  6.53817062
   6.75998844  6.53396015  6.70332112
   4.15892656  3.90390140  6.63340738
   9.41400906  3.90390140  6.79855788
   4.15892656  9.16401890  6.63340738
   9.41400906  9.16401890  6.79855788
   4.06393688  1.27503144  4.02579113
   9.31901937  1.27503144  4.19094162
   4.06393688  6.53514894  4.02579113
   9.31901937  6.53514894  4.19094162
   1.43639563  3.92680396  3.94321587
   6.69147813  3.92680396  4.10836638
   1.43639563  9.18692146  3.94321587
   6.69147813  9.18692146  4.10836638
  10.66152870  0.03631585  5.53258415
   5.40644620  0.03631585  5.36743365
  10.66152870  5.29643335  5.53258415
   5.40644620  5.29643335  5.36743365
   2.72142755  0.03631585  2.68414860
   7.97651005  0.03631585  2.84929910
   2.72142755  5.29643335  2.68414860
   7.97651005  5.29643335  2.84929910
   2.61540495  2.66637460  0.08228740
   7.87048745  2.66637460  0.24743790
   2.61540495  7.92649210  0.08228740
   7.87048745  7.92649210  0.24743790
   0.25738630  2.66637460  7.80414435
   5.51246880  2.66637460  7.96929485
   0.25738630  7.92649210  7.80414435
   5.51246880  7.92649210  7.96929485
  10.50358597  0.03401192  0.33244348
   5.24850347  0.03401192  0.16729298
  10.50358597  5.29412942  0.33244348
   5.24850347  5.29412942  0.16729298
   2.87937028  0.03401192  7.88428927
   8.13445278  0.03401192  8.04943977
   2.87937028  5.29412942  7.88428927
   8.13445278  5.29412942  8.04943977
   2.78446222  2.66407067  5.28728873
   8.03954472  2.66407067  5.45243923
   2.78446222  7.92418817  5.28728873
   8.03954472  7.92418817  5.45243923
   0.08832903  2.66407067  2.59914302
   5.34341153  2.66407067  2.76429352
   0.08832903  7.92418817  2.59914302
   5.34341153  7.92418817  2.76429352
 


--------------------------------------------------------------------------------------------------------


 k-point  1 :   0.0000 0.0000 0.0000  plane waves:   48331
 k-point  2 :   0.5000 0.0000 0.0000  plane waves:   48376
 k-point  3 :   0.0000 0.5000 0.0000  plane waves:   48362
 k-point  4 :   0.5000 0.5000 0.0000  plane waves:   48360
 k-point  5 :   0.0000 0.0000 0.5000  plane waves:   48358
 k-point  6 :   0.5000 0.0000 0.5000  plane waves:   48336
 k-point  7 :   0.0000 0.5000 0.5000  plane waves:   48344
 k-point  8 :   0.5000 0.5000 0.5000  plane waves:   48268

 maximum and minimum number of plane-waves per node :     48376    48268

 maximum number of plane-waves:     48376
 maximum index in each direction: 
   IXMAX=   22   IYMAX=   22   IZMAX=   22
   IXMIN=  -23   IYMIN=  -23   IZMIN=  -22


 serial   3D FFT for wavefunctions
 parallel 3D FFT for charge:
    minimum data exchange during FFTs selected (reduces bandwidth)


 total amount of memory used by VASP MPI-rank0   348353. kBytes
=======================================================================

   base      :      30000. kBytes
   nonl-proj :     216760. kBytes
   fftplans  :       4588. kBytes
   grid      :      69719. kBytes
   one-center:       1990. kBytes
   wavefun   :      25296. kBytes
 
     INWAV:  cpu time    0.0001: real time    0.0003
 Broyden mixing: mesh for mixing (old mesh)
   NGX = 45   NGY = 45   NGZ = 45
  (NGX  =192   NGY  =192   NGZ  =180)
  gives a total of  91125 points

 initial charge density was supplied:
 number of electron     688.0000190 magnetization       0.0000000
 keeping initial charge density in first step


--------------------------------------------------------------------------------------------------------


 Maximum index for augmentation-charges          897 (set IRDMAX)


--------------------------------------------------------------------------------------------------------


 First call to EWALD:  gamma=   0.169
 Maximum number of real-space cells 3x 3x 3
 Maximum number of reciprocal cells 3x 3x 3

    FEWALD:  cpu time    0.0026: real time    0.0030


--------------------------------------- Iteration      1(   1)  ---------------------------------------


    POTLOK:  cpu time    0.3801: real time    0.4369
    SETDIJ:  cpu time    0.0152: real time    0.0153
     EDDAV:  cpu time   85.5720: real time   86.2804
 BZINTS: Fermi energy: 14.970487;688.000000 electrons
         Band energy:***********;  BLOECHL correction: -0.015158
       DOS:  cpu time    0.0419: real time    0.0420
    --------------------------------------------
      LOOP:  cpu time   86.0092: real time   86.7747

 eigenvalue-minimisations  : 16384
 total energy-change (2. order) : 0.6047533E+04  (-0.5157360E+05)
 number of electron     688.0000190 magnetization       0.0000000
 augmentation part      688.0000190 magnetization       0.0000000

 Free energy of the ion-electron system (eV)
  ---------------------------------------------------
  alpha Z        PSCENC =      2358.84707887
  Ewald energy   TEWEN  =    -62508.05360242
  -Hartree energ DENC   =    -42920.34329662
  -exchange      EXHF   =         0.00000000
  -V(xc)+E(xc)   XCENC  =      3286.14780889
  PAW double counting   =    112224.67741066  -115917.87443654
  entropy T*S    EENTRO =         0.00000000
  eigenvalues    EBANDS =     -4495.93338717
  atomic energy  EATOM  =    114020.06510763
  Solvation  Ediel_sol  =         0.00000000
  ---------------------------------------------------
  free energy    TOTEN  =      6047.53268330 eV

  energy without entropy =     6047.53268330  energy(sigma->0) =     6047.53268330


--------------------------------------------------------------------------------------------------------




--------------------------------------- Iteration      1(   2)  ---------------------------------------


     EDDAV:  cpu time   98.5543: real time   99.3130
 BZINTS: Fermi energy:  5.586201;688.000000 electrons
         Band energy:***********;  BLOECHL correction:  0.000000
       DOS:  cpu time    0.0063: real time    0.0063
    --------------------------------------------
      LOOP:  cpu time   98.5605: real time   99.3192

 eigenvalue-minimisations  : 17920
 total energy-change (2. order) :-0.6124197E+04  (-0.6014106E+04)
 number of electron     688.0000190 magnetization       0.0000000
 augmentation part      688.0000190 magnetization       0.0000000

 Free energy of the ion-electron system (eV)
  ---------------------------------------------------
  alpha Z        PSCENC =      2358.84707887
  Ewald energy   TEWEN  =    -62508.05360242
  -Hartree energ DENC   =    -42920.34329662
  -exchange      EXHF   =         0.00000000
  -V(xc)+E(xc)   XCENC  =      3286.14780889
  PAW double counting   =    112224.67741066  -115917.87443654
  entropy T*S    EENTRO =         0.00000000
  eigenvalues    EBANDS =    -10620.13062094
  atomic energy  EATOM  =    114020.06510763
  Solvation  Ediel_sol  =         0.00000000
  ---------------------------------------------------
  free energy    TOTEN  =       -76.66455046 eV

  energy without entropy =      -76.66455046  energy(sigma->0) =      -76.66455046


--------------------------------------------------------------------------------------------------------




--------------------------------------- Iteration      1(   3)  ---------------------------------------


     EDDAV:  cpu time  158.4372: real time  159.5450
 BZINTS: Fermi energy:  4.967144;688.000000 electrons
         Band energy:***********;  BLOECHL correction:  0.000000
       DOS:  cpu time    0.0063: real time    0.0063
    --------------------------------------------
      LOOP:  cpu time  158.4434: real time  159.5513

 eigenvalue-minimisations  : 23040
 total energy-change (2. order) :-0.2477470E+03  (-0.2468329E+03)
 number of electron     688.0000190 magnetization       0.0000000
 augmentation part      688.0000190 magnetization       0.0000000

 Free energy of the ion-electron system (eV)
  ---------------------------------------------------
  alpha Z        PSCENC =      2358.84707887
  Ewald energy   TEWEN  =    -62508.05360242
  -Hartree energ DENC   =    -42920.34329662
  -exchange      EXHF   =         0.00000000
  -V(xc)+E(xc)   XCENC  =      3286.14780889
  PAW double counting   =    112224.67741066  -115917.87443654
  entropy T*S    EENTRO =         0.00000000
  eigenvalues    EBANDS =    -10867.87760212
  atomic energy  EATOM  =    114020.06510763
  Solvation  Ediel_sol  =         0.00000000
  ---------------------------------------------------
  free energy    TOTEN  =      -324.41153165 eV

  energy without entropy =     -324.41153165  energy(sigma->0) =     -324.41153165


--------------------------------------------------------------------------------------------------------




--------------------------------------- Iteration      1(   4)  ---------------------------------------


     EDDAV:  cpu time  121.9126: real time  122.8109
 BZINTS: Fermi energy:  4.899133;688.000000 electrons
         Band energy:***********;  BLOECHL correction:  0.000000
       DOS:  cpu time    0.0053: real time    0.0053
    --------------------------------------------
      LOOP:  cpu time  121.9179: real time  122.8162

 eigenvalue-minimisations  : 19456
 total energy-change (2. order) :-0.3394992E+01  (-0.3394847E+01)
 number of electron     688.0000190 magnetization       0.0000000
 augmentation part      688.0000190 magnetization       0.0000000

 Free energy of the ion-electron system (eV)
  ---------------------------------------------------
  alpha Z        PSCENC =      2358.84707887
  Ewald energy   TEWEN  =    -62508.05360242
  -Hartree energ DENC   =    -42920.34329662
  -exchange      EXHF   =         0.00000000
  -V(xc)+E(xc)   XCENC  =      3286.14780889
  PAW double counting   =    112224.67741066  -115917.87443654
  entropy T*S    EENTRO =         0.00000000
  eigenvalues    EBANDS =    -10871.27259437
  atomic energy  EATOM  =    114020.06510763
  Solvation  Ediel_sol  =         0.00000000
  ---------------------------------------------------
  free energy    TOTEN  =      -327.80652390 eV

  energy without entropy =     -327.80652390  energy(sigma->0) =     -327.80652390


--------------------------------------------------------------------------------------------------------




--------------------------------------- Iteration      1(   5)  ---------------------------------------


     EDDAV:  cpu time  148.0092: real time  149.0512
 BZINTS: Fermi energy:  5.032161;688.000000 electrons
         Band energy:***********;  BLOECHL correction:  0.000000
       DOS:  cpu time    0.0061: real time    0.0062
    CHARGE:  cpu time    1.4721: real time    1.4806
    MIXING:  cpu time    0.0067: real time    0.0068
    --------------------------------------------
      LOOP:  cpu time  149.4941: real time  150.5447

 eigenvalue-minimisations  : 21760
 total energy-change (2. order) :-0.1028795E+00  (-0.1028790E+00)
 number of electron     688.0000168 magnetization       0.0000000
 augmentation part      282.3619237 magnetization       0.0000000

 Broyden mixing:
  rms(total) = 0.37008E+00    rms(broyden)= 0.37003E+00
  rms(prec ) = 0.41243E+00
  weight for this iteration     100.00

 Free energy of the ion-electron system (eV)
  ---------------------------------------------------
  alpha Z        PSCENC =      2358.84707887
  Ewald energy   TEWEN  =    -62508.05360242
  -Hartree energ DENC   =    -42920.34329662
  -exchange      EXHF   =         0.00000000
  -V(xc)+E(xc)   XCENC  =      3286.14780889
  PAW double counting   =    112224.67741066  -115917.87443654
  entropy T*S    EENTRO =         0.00000000
  eigenvalues    EBANDS =    -10871.37547387
  atomic energy  EATOM  =    114020.06510763
  Solvation  Ediel_sol  =         0.00000000
  ---------------------------------------------------
  free energy    TOTEN  =      -327.90940339 eV

  energy without entropy =     -327.90940339  energy(sigma->0) =     -327.90940339


--------------------------------------------------------------------------------------------------------




--------------------------------------- Iteration      1(   6)  ---------------------------------------


    POTLOK:  cpu time    0.1461: real time    0.1491
    SETDIJ:  cpu time    0.0131: real time    0.0132
     EDDAV:  cpu time  154.7094: real time  155.7954
 BZINTS: Fermi energy:  4.965276;688.000000 electrons
         Band energy:***********;  BLOECHL correction:  0.000000
       DOS:  cpu time    0.0062: real time    0.0062
    CHARGE:  cpu time    1.4687: real time    1.4773
    MIXING:  cpu time    0.0026: real time    0.1488
    --------------------------------------------
      LOOP:  cpu time  156.3461: real time  157.5901

 eigenvalue-minimisations  : 23040
 total energy-change (2. order) : 0.1573389E+00  (-0.2002416E-01)
 number of electron     688.0000168 magnetization       0.0000000
 augmentation part      282.1469692 magnetization       0.0000000

 Broyden mixing:
  rms(total) = 0.19959E+00    rms(broyden)= 0.19959E+00
  rms(prec ) = 0.22223E+00
  weight for this iteration     100.00

 eigenvalues of (default mixing * dielectric matrix)
  average eigenvalue GAMMA=   0.8964
  0.8964

 Free energy of the ion-electron system (eV)
  ---------------------------------------------------
  alpha Z        PSCENC =      2358.84707887
  Ewald energy   TEWEN  =    -62508.05360242
  -Hartree energ DENC   =    -42933.45394351
  -exchange      EXHF   =         0.00000000
  -V(xc)+E(xc)   XCENC  =      3286.59013634
  PAW double counting   =    112280.40375300  -115975.19717404
  entropy T*S    EENTRO =         0.00000000
  eigenvalues    EBANDS =    -10856.95342040
  atomic energy  EATOM  =    114020.06510763
  Solvation  Ediel_sol  =         0.00000000
  ---------------------------------------------------
  free energy    TOTEN  =      -327.75206452 eV

  energy without entropy =     -327.75206452  energy(sigma->0) =     -327.75206452


--------------------------------------------------------------------------------------------------------




--------------------------------------- Iteration      1(   7)  ---------------------------------------


    POTLOK:  cpu time    0.1468: real time    0.1479
    SETDIJ:  cpu time    0.0131: real time    0.0132
     EDDAV:  cpu time  180.2193: real time  181.4721
 BZINTS: Fermi energy:  4.933556;688.000000 electrons
         Band energy:***********;  BLOECHL correction:  0.000000
       DOS:  cpu time    0.0061: real time    0.0061
    CHARGE:  cpu time    1.4652: real time    1.4746
    MIXING:  cpu time    0.0017: real time    0.0243
    --------------------------------------------
      LOOP:  cpu time  181.8523: real time  183.1382

 eigenvalue-minimisations  : 25856
 total energy-change (2. order) : 0.4251781E-01  (-0.1791074E-01)
 number of electron     688.0000168 magnetization       0.0000000
 augmentation part      282.3086760 magnetization       0.0000000

 Broyden mixing:
  rms(total) = 0.13267E+00    rms(broyden)= 0.13267E+00
  rms(prec ) = 0.14965E+00
  weight for this iteration     100.00

 eigenvalues of (default mixing * dielectric matrix)
  average eigenvalue GAMMA=   1.1457
  1.6715  0.6200

 Free energy of the ion-electron system (eV)
  ---------------------------------------------------
  alpha Z        PSCENC =      2358.84707887
  Ewald energy   TEWEN  =    -62508.05360242
  -Hartree energ DENC   =    -42920.80894273
  -exchange      EXHF   =         0.00000000
  -V(xc)+E(xc)   XCENC  =      3286.24090339
  PAW double counting   =    112259.05142504  -115951.51676164
  entropy T*S    EENTRO =         0.00000000
  eigenvalues    EBANDS =    -10871.53475485
  atomic energy  EATOM  =    114020.06510763
  Solvation  Ediel_sol  =         0.00000000
  ---------------------------------------------------
  free energy    TOTEN  =      -327.70954672 eV

  energy without entropy =     -327.70954672  energy(sigma->0) =     -327.70954672


--------------------------------------------------------------------------------------------------------




--------------------------------------- Iteration      1(   8)  ---------------------------------------


    POTLOK:  cpu time    0.1437: real time    0.1484
    SETDIJ:  cpu time    0.0131: real time    0.0132
     EDDAV:  cpu time  141.9093: real time  142.9202
 BZINTS: Fermi energy:  4.935358;688.000000 electrons
         Band energy:***********;  BLOECHL correction:  0.000000
       DOS:  cpu time    0.0061: real time    0.0061
    CHARGE:  cpu time    1.4686: real time    1.4786
    MIXING:  cpu time    0.0015: real time    0.0015
    --------------------------------------------
      LOOP:  cpu time  143.5422: real time  144.5681

 eigenvalue-minimisations  : 21504
 total energy-change (2. order) : 0.3606689E-02  (-0.1978610E-01)
 number of electron     688.0000168 magnetization       0.0000000
 augmentation part      282.2686332 magnetization       0.0000000

 Broyden mixing:
  rms(total) = 0.12298E+00    rms(broyden)= 0.12298E+00
  rms(prec ) = 0.14383E+00
  weight for this iteration     100.00

 eigenvalues of (default mixing * dielectric matrix)
  average eigenvalue GAMMA=   0.9097
  1.8170  0.6242  0.2879

 Free energy of the ion-electron system (eV)
  ---------------------------------------------------
  alpha Z        PSCENC =      2358.84707887
  Ewald energy   TEWEN  =    -62508.05360242
  -Hartree energ DENC   =    -42929.74129317
  -exchange      EXHF   =         0.00000000
  -V(xc)+E(xc)   XCENC  =      3286.61898132
  PAW double counting   =    112255.35535757  -115948.70904332
  entropy T*S    EENTRO =         0.00000000
  eigenvalues    EBANDS =    -10862.08852652
  atomic energy  EATOM  =    114020.06510763
  Solvation  Ediel_sol  =         0.00000000
  ---------------------------------------------------
  free energy    TOTEN  =      -327.70594003 eV

  energy without entropy =     -327.70594003  energy(sigma->0) =     -327.70594003


--------------------------------------------------------------------------------------------------------




--------------------------------------- Iteration      1(   9)  ---------------------------------------


    POTLOK:  cpu time    0.1480: real time    0.1491
    SETDIJ:  cpu time    0.0132: real time    0.0133
     EDDAV:  cpu time  145.5063: real time  146.5349
 BZINTS: Fermi energy:  4.925343;688.000000 electrons
         Band energy:***********;  BLOECHL correction:  0.000000
       DOS:  cpu time    0.0061: real time    0.0061
    CHARGE:  cpu time    1.4782: real time    1.4882
    MIXING:  cpu time    0.0018: real time    0.0037
    --------------------------------------------
      LOOP:  cpu time  147.1536: real time  148.1953

 eigenvalue-minimisations  : 21504
 total energy-change (2. order) : 0.5606294E-02  (-0.5331712E-02)
 number of electron     688.0000168 magnetization       0.0000000
 augmentation part      282.2325982 magnetization       0.0000000

 Broyden mixing:
  rms(total) = 0.35404E-01    rms(broyden)= 0.35402E-01
  rms(prec ) = 0.36489E-01
  weight for this iteration     100.00

 eigenvalues of (default mixing * dielectric matrix)
  average eigenvalue GAMMA=   0.9037
  1.9701  0.7588  0.5633  0.3228

 Free energy of the ion-electron system (eV)
  ---------------------------------------------------
  alpha Z        PSCENC =      2358.84707887
  Ewald energy   TEWEN  =    -62508.05360242
  -Hartree energ DENC   =    -42928.83276150
  -exchange      EXHF   =         0.00000000
  -V(xc)+E(xc)   XCENC  =      3286.49017952
  PAW double counting   =    112251.75736957  -115945.28348314
  entropy T*S    EENTRO =         0.00000000
  eigenvalues    EBANDS =    -10862.69022227
  atomic energy  EATOM  =    114020.06510763
  Solvation  Ediel_sol  =         0.00000000
  ---------------------------------------------------
  free energy    TOTEN  =      -327.70033374 eV

  energy without entropy =     -327.70033374  energy(sigma->0) =     -327.70033374


--------------------------------------------------------------------------------------------------------




--------------------------------------- Iteration      1(  10)  ---------------------------------------


    POTLOK:  cpu time    0.1422: real time    0.1468
    SETDIJ:  cpu time    0.0132: real time    0.0132
     EDDAV:  cpu time  141.0596: real time  142.0698
 BZINTS: Fermi energy:  4.923978;688.000000 electrons
         Band energy:***********;  BLOECHL correction:  0.000000
       DOS:  cpu time    0.0061: real time    0.0061
    CHARGE:  cpu time    1.4648: real time    1.4737
    MIXING:  cpu time    0.0017: real time    0.0017
    --------------------------------------------
      LOOP:  cpu time  142.6876: real time  143.7113

 eigenvalue-minimisations  : 21760
 total energy-change (2. order) :-0.3745254E-03  (-0.2821023E-03)
 number of electron     688.0000168 magnetization       0.0000000
 augmentation part      282.2213793 magnetization       0.0000000

 Broyden mixing:
  rms(total) = 0.22992E-01    rms(broyden)= 0.22992E-01
  rms(prec ) = 0.24238E-01
  weight for this iteration     100.00

 eigenvalues of (default mixing * dielectric matrix)
  average eigenvalue GAMMA=   0.9822
  1.8253  1.5246  0.6751  0.5466  0.3393

 Free energy of the ion-electron system (eV)
  ---------------------------------------------------
  alpha Z        PSCENC =      2358.84707887
  Ewald energy   TEWEN  =    -62508.05360242
  -Hartree energ DENC   =    -42928.89296076
  -exchange      EXHF   =         0.00000000
  -V(xc)+E(xc)   XCENC  =      3286.47997790
  PAW double counting   =    112246.70036582  -115940.13273920
  entropy T*S    EENTRO =         0.00000000
  eigenvalues    EBANDS =    -10862.71393609
  atomic energy  EATOM  =    114020.06510763
  Solvation  Ediel_sol  =         0.00000000
  ---------------------------------------------------
  free energy    TOTEN  =      -327.70070826 eV

  energy without entropy =     -327.70070826  energy(sigma->0) =     -327.70070826


--------------------------------------------------------------------------------------------------------




--------------------------------------- Iteration      1(  11)  ---------------------------------------


    POTLOK:  cpu time    0.1473: real time    0.1483
    SETDIJ:  cpu time    0.0132: real time    0.0132
     EDDAV:  cpu time  146.5969: real time  147.6287
 BZINTS: Fermi energy:  4.923231;688.000000 electrons
         Band energy:***********;  BLOECHL correction:  0.000000
       DOS:  cpu time    0.0061: real time    0.0061
    CHARGE:  cpu time    1.4662: real time    1.4748
    MIXING:  cpu time    0.0016: real time    0.0016
    --------------------------------------------
      LOOP:  cpu time  148.2312: real time  149.2728

 eigenvalue-minimisations  : 21504
 total energy-change (2. order) :-0.2650988E-03  (-0.1312184E-03)
 number of electron     688.0000168 magnetization      -0.0000000
 augmentation part      282.2368010 magnetization      -0.0000000

 Broyden mixing:
  rms(total) = 0.10753E-01    rms(broyden)= 0.10753E-01
  rms(prec ) = 0.11015E-01
  weight for this iteration     100.00

 eigenvalues of (default mixing * dielectric matrix)
  average eigenvalue GAMMA=   1.1481
  2.1948  2.1948  0.9071  0.6485  0.6049  0.3384

 Free energy of the ion-electron system (eV)
  ---------------------------------------------------
  alpha Z        PSCENC =      2358.84707887
  Ewald energy   TEWEN  =    -62508.05360242
  -Hartree energ DENC   =    -42928.30306688
  -exchange      EXHF   =         0.00000000
  -V(xc)+E(xc)   XCENC  =      3286.47018549
  PAW double counting   =    112240.60604789  -115933.89439482
  entropy T*S    EENTRO =         0.00000000
  eigenvalues    EBANDS =    -10863.43832911
  atomic energy  EATOM  =    114020.06510763
  Solvation  Ediel_sol  =         0.00000000
  ---------------------------------------------------
  free energy    TOTEN  =      -327.70097336 eV

  energy without entropy =     -327.70097336  energy(sigma->0) =     -327.70097336


--------------------------------------------------------------------------------------------------------




--------------------------------------- Iteration      1(  12)  ---------------------------------------


    POTLOK:  cpu time    0.1420: real time    0.1474
    SETDIJ:  cpu time    0.0130: real time    0.0131
     EDDAV:  cpu time  130.7095: real time  131.6474
 BZINTS: Fermi energy:  4.923161;688.000000 electrons
         Band energy:***********;  BLOECHL correction:  0.000000
       DOS:  cpu time    0.0061: real time    0.0061
    CHARGE:  cpu time    1.4684: real time    1.4769
    MIXING:  cpu time    0.0018: real time    0.0018
    --------------------------------------------
      LOOP:  cpu time  132.3409: real time  133.2926

 eigenvalue-minimisations  : 20224
 total energy-change (2. order) :-0.1972072E-03  (-0.6090259E-04)
 number of electron     688.0000168 magnetization      -0.0000000
 augmentation part      282.2272322 magnetization      -0.0000000

 Broyden mixing:
  rms(total) = 0.44066E-02    rms(broyden)= 0.44063E-02
  rms(prec ) = 0.46791E-02
  weight for this iteration     100.00

 eigenvalues of (default mixing * dielectric matrix)
  average eigenvalue GAMMA=   1.1133
  2.2543  2.2543  0.9695  0.3381  0.6946  0.6410  0.6410

 Free energy of the ion-electron system (eV)
  ---------------------------------------------------
  alpha Z        PSCENC =      2358.84707887
  Ewald energy   TEWEN  =    -62508.05360242
  -Hartree energ DENC   =    -42928.85634553
  -exchange      EXHF   =         0.00000000
  -V(xc)+E(xc)   XCENC  =      3286.48184183
  PAW double counting   =    112236.77897415  -115930.15200145
  entropy T*S    EENTRO =         0.00000000
  eigenvalues    EBANDS =    -10862.81222366
  atomic energy  EATOM  =    114020.06510763
  Solvation  Ediel_sol  =         0.00000000
  ---------------------------------------------------
  free energy    TOTEN  =      -327.70117057 eV

  energy without entropy =     -327.70117057  energy(sigma->0) =     -327.70117057


--------------------------------------------------------------------------------------------------------




--------------------------------------- Iteration      1(  13)  ---------------------------------------


    POTLOK:  cpu time    0.1461: real time    0.1483
    SETDIJ:  cpu time    0.0134: real time    0.0134
     EDDAV:  cpu time  140.7545: real time  141.7461
 BZINTS: Fermi energy:  4.922843;688.000000 electrons
         Band energy:***********;  BLOECHL correction:  0.000000
       DOS:  cpu time    0.0061: real time    0.0061
    CHARGE:  cpu time    1.4927: real time    1.5015
    MIXING:  cpu time    0.0018: real time    0.0018
    --------------------------------------------
      LOOP:  cpu time  142.4145: real time  143.4173

 eigenvalue-minimisations  : 20736
 total energy-change (2. order) :-0.2905997E-04  (-0.7705233E-05)
 number of electron     688.0000168 magnetization      -0.0000000
 augmentation part      282.2324821 magnetization      -0.0000000

 Broyden mixing:
  rms(total) = 0.28580E-02    rms(broyden)= 0.28579E-02
  rms(prec ) = 0.30136E-02
  weight for this iteration     100.00

 eigenvalues of (default mixing * dielectric matrix)
  average eigenvalue GAMMA=   1.0863
  2.2614  2.2614  0.9983  0.9983  0.3380  0.6491  0.5917  0.5917

 Free energy of the ion-electron system (eV)
  ---------------------------------------------------
  alpha Z        PSCENC =      2358.84707887
  Ewald energy   TEWEN  =    -62508.05360242
  -Hartree energ DENC   =    -42928.51939104
  -exchange      EXHF   =         0.00000000
  -V(xc)+E(xc)   XCENC  =      3286.47421173
  PAW double counting   =    112235.85243424  -115929.17257995
  entropy T*S    EENTRO =         0.00000000
  eigenvalues    EBANDS =    -10863.19445869
  atomic energy  EATOM  =    114020.06510763
  Solvation  Ediel_sol  =         0.00000000
  ---------------------------------------------------
  free energy    TOTEN  =      -327.70119963 eV

  energy without entropy =     -327.70119963  energy(sigma->0) =     -327.70119963


--------------------------------------------------------------------------------------------------------




--------------------------------------- Iteration      1(  14)  ---------------------------------------


    POTLOK:  cpu time    0.1445: real time    0.1482
    SETDIJ:  cpu time    0.0132: real time    0.0133
     EDDAV:  cpu time  143.8316: real time  144.8430
 BZINTS: Fermi energy:  4.922814;688.000000 electrons
         Band energy:***********;  BLOECHL correction:  0.000000
       DOS:  cpu time    0.0061: real time    0.0062
    CHARGE:  cpu time    1.7030: real time    1.7125
    MIXING:  cpu time    0.0019: real time    0.0019
    --------------------------------------------
      LOOP:  cpu time  145.7003: real time  146.7250

 eigenvalue-minimisations  : 21248
 total energy-change (2. order) :-0.1895466E-04  (-0.4024809E-05)
 number of electron     688.0000168 magnetization       0.0000000
 augmentation part      282.2306850 magnetization       0.0000000

 Broyden mixing:
  rms(total) = 0.17285E-02    rms(broyden)= 0.17284E-02
  rms(prec ) = 0.18107E-02
  weight for this iteration     100.00

 eigenvalues of (default mixing * dielectric matrix)
  average eigenvalue GAMMA=   1.2185
  2.5050  2.5050  1.5322  1.5322  0.3380  0.7164  0.5920  0.5920  0.6535

 Free energy of the ion-electron system (eV)
  ---------------------------------------------------
  alpha Z        PSCENC =      2358.84707887
  Ewald energy   TEWEN  =    -62508.05360242
  -Hartree energ DENC   =    -42928.62327942
  -exchange      EXHF   =         0.00000000
  -V(xc)+E(xc)   XCENC  =      3286.47684989
  PAW double counting   =    112235.63196755  -115928.97623990
  entropy T*S    EENTRO =         0.00000000
  eigenvalues    EBANDS =    -10863.06910080
  atomic energy  EATOM  =    114020.06510763
  Solvation  Ediel_sol  =         0.00000000
  ---------------------------------------------------
  free energy    TOTEN  =      -327.70121858 eV

  energy without entropy =     -327.70121858  energy(sigma->0) =     -327.70121858


--------------------------------------------------------------------------------------------------------




--------------------------------------- Iteration      1(  15)  ---------------------------------------


    POTLOK:  cpu time    0.1603: real time    0.1626
    SETDIJ:  cpu time    0.0166: real time    0.0166
     EDDAV:  cpu time  143.3457: real time  144.3499
 BZINTS: Fermi energy:  4.922784;688.000000 electrons
         Band energy:***********;  BLOECHL correction:  0.000000
       DOS:  cpu time    0.0061: real time    0.0061
    CHARGE:  cpu time    1.4673: real time    1.4760
    MIXING:  cpu time    0.0019: real time    0.0019
    --------------------------------------------
      LOOP:  cpu time  144.9978: real time  146.0131

 eigenvalue-minimisations  : 20992
 total energy-change (2. order) :-0.1642463E-04  (-0.5926906E-05)
 number of electron     688.0000168 magnetization       0.0000000
 augmentation part      282.2304363 magnetization       0.0000000

 Broyden mixing:
  rms(total) = 0.80554E-03    rms(broyden)= 0.80530E-03
  rms(prec ) = 0.87827E-03
  weight for this iteration     100.00

 eigenvalues of (default mixing * dielectric matrix)
  average eigenvalue GAMMA=   1.2402
  3.1076  2.2559  1.9475  1.1197  1.1197  0.3380  0.5909  0.5909  0.7059  0.6258

 Free energy of the ion-electron system (eV)
  ---------------------------------------------------
  alpha Z        PSCENC =      2358.84707887
  Ewald energy   TEWEN  =    -62508.05360242
  -Hartree energ DENC   =    -42928.62561730
  -exchange      EXHF   =         0.00000000
  -V(xc)+E(xc)   XCENC  =      3286.47709501
  PAW double counting   =    112235.28038041  -115928.63182855
  entropy T*S    EENTRO =         0.00000000
  eigenvalues    EBANDS =    -10863.05984866
  atomic energy  EATOM  =    114020.06510763
  Solvation  Ediel_sol  =         0.00000000
  ---------------------------------------------------
  free energy    TOTEN  =      -327.70123501 eV

  energy without entropy =     -327.70123501  energy(sigma->0) =     -327.70123501


--------------------------------------------------------------------------------------------------------




--------------------------------------- Iteration      1(  16)  ---------------------------------------


    POTLOK:  cpu time    0.1439: real time    0.1483
    SETDIJ:  cpu time    0.0133: real time    0.0133
     EDDAV:  cpu time  132.2145: real time  133.1513
 BZINTS: Fermi energy:  4.922767;688.000000 electrons
         Band energy:***********;  BLOECHL correction:  0.000000
       DOS:  cpu time    0.0062: real time    0.0062
    CHARGE:  cpu time    1.4684: real time    1.4771
    MIXING:  cpu time    0.0022: real time    0.0028
    --------------------------------------------
      LOOP:  cpu time  133.8484: real time  134.7990

 eigenvalue-minimisations  : 19968
 total energy-change (2. order) :-0.3379217E-05  (-0.1032377E-05)
 number of electron     688.0000168 magnetization       0.0000000
 augmentation part      282.2310998 magnetization       0.0000000

 Broyden mixing:
  rms(total) = 0.57701E-03    rms(broyden)= 0.57692E-03
  rms(prec ) = 0.60695E-03
  weight for this iteration     100.00

 eigenvalues of (default mixing * dielectric matrix)
  average eigenvalue GAMMA=   1.3052
  3.4364  2.2013  2.2013  1.4056  1.4056  0.3380  0.8639  0.5890  0.5890  0.6977
  0.6294

 Free energy of the ion-electron system (eV)
  ---------------------------------------------------
  alpha Z        PSCENC =      2358.84707887
  Ewald energy   TEWEN  =    -62508.05360242
  -Hartree energ DENC   =    -42928.60114571
  -exchange      EXHF   =         0.00000000
  -V(xc)+E(xc)   XCENC  =      3286.47684862
  PAW double counting   =    112235.12904999  -115928.47669355
  entropy T*S    EENTRO =         0.00000000
  eigenvalues    EBANDS =    -10863.08788181
  atomic energy  EATOM  =    114020.06510763
  Solvation  Ediel_sol  =         0.00000000
  ---------------------------------------------------
  free energy    TOTEN  =      -327.70123839 eV

  energy without entropy =     -327.70123839  energy(sigma->0) =     -327.70123839


--------------------------------------------------------------------------------------------------------




--------------------------------------- Iteration      1(  17)  ---------------------------------------


    POTLOK:  cpu time    0.1481: real time    0.1492
    SETDIJ:  cpu time    0.0133: real time    0.0134
     EDDAV:  cpu time  130.8455: real time  131.7803
 BZINTS: Fermi energy:  4.922759;688.000000 electrons
         Band energy:***********;  BLOECHL correction:  0.000000
       DOS:  cpu time    0.0061: real time    0.0062
    CHARGE:  cpu time    1.4644: real time    1.4730
    MIXING:  cpu time    0.0020: real time    0.0020
    --------------------------------------------
      LOOP:  cpu time  132.4794: real time  133.4239

 eigenvalue-minimisations  : 19968
 total energy-change (2. order) :-0.1647699E-05  (-0.9184949E-06)
 number of electron     688.0000168 magnetization       0.0000000
 augmentation part      282.2310252 magnetization       0.0000000

 Broyden mixing:
  rms(total) = 0.25292E-03    rms(broyden)= 0.25278E-03
  rms(prec ) = 0.27101E-03
  weight for this iteration     100.00

 eigenvalues of (default mixing * dielectric matrix)
  average eigenvalue GAMMA=   1.3742
  4.0856  2.3538  2.3538  1.6191  1.6191  0.9543  0.3380  0.5908  0.5908  0.7151
  0.6351  0.6351

 Free energy of the ion-electron system (eV)
  ---------------------------------------------------
  alpha Z        PSCENC =      2358.84707887
  Ewald energy   TEWEN  =    -62508.05360242
  -Hartree energ DENC   =    -42928.60405030
  -exchange      EXHF   =         0.00000000
  -V(xc)+E(xc)   XCENC  =      3286.47689483
  PAW double counting   =    112235.21876130  -115928.56761427
  entropy T*S    EENTRO =         0.00000000
  eigenvalues    EBANDS =    -10863.08381569
  atomic energy  EATOM  =    114020.06510763
  Solvation  Ediel_sol  =         0.00000000
  ---------------------------------------------------
  free energy    TOTEN  =      -327.70124003 eV

  energy without entropy =     -327.70124003  energy(sigma->0) =     -327.70124003


--------------------------------------------------------------------------------------------------------




--------------------------------------- Iteration      1(  18)  ---------------------------------------


    POTLOK:  cpu time    0.1467: real time    0.1478
    SETDIJ:  cpu time    0.0132: real time    0.0133
     EDDAV:  cpu time  137.5339: real time  138.5032
 BZINTS: Fermi energy:  4.922748;688.000000 electrons
         Band energy:***********;  BLOECHL correction:  0.000000
       DOS:  cpu time    0.0061: real time    0.0061
    CHARGE:  cpu time    1.4634: real time    1.4726
    MIXING:  cpu time    0.0021: real time    0.0021
    --------------------------------------------
      LOOP:  cpu time  139.1653: real time  140.1450

 eigenvalue-minimisations  : 20480
 total energy-change (2. order) :-0.2100569E-06  (-0.1670730E-06)
 number of electron     688.0000168 magnetization       0.0000000
 augmentation part      282.2309533 magnetization       0.0000000

 Broyden mixing:
  rms(total) = 0.13327E-03    rms(broyden)= 0.13320E-03
  rms(prec ) = 0.13801E-03
  weight for this iteration     100.00

 eigenvalues of (default mixing * dielectric matrix)
  average eigenvalue GAMMA=   1.3573
  4.3582  2.4177  2.4177  1.5545  1.5545  0.3380  0.9568  0.8887  0.7285  0.5907
  0.5907  0.6245  0.6245

 Free energy of the ion-electron system (eV)
  ---------------------------------------------------
  alpha Z        PSCENC =      2358.84707887
  Ewald energy   TEWEN  =    -62508.05360242
  -Hartree energ DENC   =    -42928.60206715
  -exchange      EXHF   =         0.00000000
  -V(xc)+E(xc)   XCENC  =      3286.47675786
  PAW double counting   =    112235.28679388  -115928.63512367
  entropy T*S    EENTRO =         0.00000000
  eigenvalues    EBANDS =    -10863.08618524
  atomic energy  EATOM  =    114020.06510763
  Solvation  Ediel_sol  =         0.00000000
  ---------------------------------------------------
  free energy    TOTEN  =      -327.70124024 eV

  energy without entropy =     -327.70124024  energy(sigma->0) =     -327.70124024


--------------------------------------------------------------------------------------------------------




--------------------------------------- Iteration      1(  19)  ---------------------------------------


    POTLOK:  cpu time    0.1444: real time    0.1479
    SETDIJ:  cpu time    0.0132: real time    0.0133
     EDDAV:  cpu time  127.0369: real time  127.9446
 BZINTS: Fermi energy:  4.922747;688.000000 electrons
         Band energy:***********;  BLOECHL correction:  0.000000
       DOS:  cpu time    0.0061: real time    0.0061
    CHARGE:  cpu time    1.4673: real time    1.4760
    MIXING:  cpu time    0.0023: real time    0.0023
    --------------------------------------------
      LOOP:  cpu time  128.6701: real time  129.5902

 eigenvalue-minimisations  : 19456
 total energy-change (2. order) :-0.1478475E-07  (-0.1096579E-07)
 number of electron     688.0000168 magnetization       0.0000000
 augmentation part      282.2309578 magnetization       0.0000000

 Broyden mixing:
[...]
   -.417E+02 0.218E+02 -.215E+01   0.425E+02 -.220E+02 0.218E+01   -.840E+00 0.142E+00 -.271E-01   0.533E-05 -.801E-05 -.151E-05
   -.417E+02 0.218E+02 -.215E+01   0.425E+02 -.220E+02 0.218E+01   -.840E+00 0.142E+00 -.271E-01   0.535E-05 -.801E-05 -.151E-05
   -.417E+02 0.218E+02 -.215E+01   0.425E+02 -.220E+02 0.218E+01   -.840E+00 0.142E+00 -.271E-01   0.533E-05 -.798E-05 -.151E-05
   -.417E+02 0.218E+02 -.215E+01   0.425E+02 -.220E+02 0.218E+01   -.840E+00 0.142E+00 -.271E-01   0.535E-05 -.798E-05 -.151E-05
   0.417E+02 0.218E+02 0.215E+01   -.425E+02 -.220E+02 -.218E+01   0.840E+00 0.142E+00 0.271E-01   -.534E-05 -.799E-05 0.151E-05
   0.417E+02 0.218E+02 0.215E+01   -.425E+02 -.220E+02 -.218E+01   0.840E+00 0.142E+00 0.271E-01   -.534E-05 -.799E-05 0.151E-05
   0.417E+02 0.218E+02 0.215E+01   -.425E+02 -.220E+02 -.218E+01   0.840E+00 0.142E+00 0.271E-01   -.534E-05 -.799E-05 0.152E-05
   0.417E+02 0.218E+02 0.215E+01   -.425E+02 -.220E+02 -.218E+01   0.840E+00 0.142E+00 0.271E-01   -.534E-05 -.799E-05 0.152E-05
   -.239E-07 -.254E+02 -.236E-06   -.782E-13 0.261E+02 0.000E+00   0.856E-25 -.720E+00 -.258E-25   0.729E-09 -.899E-06 0.358E-08
   -.238E-07 -.254E+02 -.236E-06   -.728E-13 0.261E+02 -.888E-14   0.104E-24 -.720E+00 -.775E-25   -.811E-09 -.899E-06 -.357E-08
   -.239E-07 -.254E+02 -.236E-06   -.995E-13 0.261E+02 0.142E-13   0.695E-25 -.720E+00 0.258E-25   0.729E-09 -.881E-06 0.358E-08
   -.238E-07 -.254E+02 -.236E-06   -.639E-13 0.261E+02 -.497E-13   0.339E-25 -.720E+00 0.258E-25   -.811E-09 -.881E-06 -.357E-08
   0.181E-07 0.590E+02 0.196E-06   0.320E-13 -.600E+02 -.364E-13   0.101E-23 0.994E+00 0.000E+00   -.120E-07 -.131E-04 0.361E-09
   0.181E-07 0.590E+02 0.196E-06   0.391E-13 -.600E+02 -.142E-13   -.158E-24 0.994E+00 0.165E-23   0.121E-07 -.131E-04 -.365E-09
   0.181E-07 0.590E+02 0.196E-06   0.213E-13 -.600E+02 -.497E-13   -.129E-24 0.994E+00 -.827E-24   -.120E-07 -.131E-04 0.361E-09
   0.181E-07 0.590E+02 0.196E-06   0.284E-13 -.600E+02 -.568E-13   -.819E-24 0.994E+00 -.101E-23   0.121E-07 -.131E-04 -.365E-09
   0.454E+01 -.204E+02 0.101E+01   -.449E+01 0.196E+02 -.103E+01   -.551E-01 0.831E+00 0.164E-01   0.699E-05 0.463E-05 0.200E-05
   0.454E+01 -.204E+02 0.101E+01   -.449E+01 0.196E+02 -.103E+01   -.551E-01 0.831E+00 0.164E-01   0.703E-05 0.463E-05 0.201E-05
   0.454E+01 -.204E+02 0.101E+01   -.449E+01 0.196E+02 -.103E+01   -.551E-01 0.831E+00 0.164E-01   0.699E-05 0.467E-05 0.199E-05
   0.454E+01 -.204E+02 0.101E+01   -.449E+01 0.196E+02 -.103E+01   -.551E-01 0.831E+00 0.164E-01   0.703E-05 0.467E-05 0.199E-05
   -.454E+01 -.204E+02 -.101E+01   0.449E+01 0.196E+02 0.103E+01   0.551E-01 0.831E+00 -.164E-01   -.704E-05 0.463E-05 -.200E-05
   -.454E+01 -.204E+02 -.101E+01   0.449E+01 0.196E+02 0.103E+01   0.551E-01 0.831E+00 -.164E-01   -.698E-05 0.463E-05 -.201E-05
   -.454E+01 -.204E+02 -.101E+01   0.449E+01 0.196E+02 0.103E+01   0.551E-01 0.831E+00 -.164E-01   -.704E-05 0.467E-05 -.199E-05
   -.454E+01 -.204E+02 -.101E+01   0.449E+01 0.196E+02 0.103E+01   0.551E-01 0.831E+00 -.164E-01   -.698E-05 0.467E-05 -.200E-05
   0.454E+01 -.204E+02 0.101E+01   -.449E+01 0.196E+02 -.103E+01   -.551E-01 0.831E+00 0.164E-01   0.698E-05 0.462E-05 0.200E-05
   0.454E+01 -.204E+02 0.101E+01   -.449E+01 0.196E+02 -.103E+01   -.551E-01 0.831E+00 0.164E-01   0.705E-05 0.462E-05 0.201E-05
   0.454E+01 -.204E+02 0.101E+01   -.449E+01 0.196E+02 -.103E+01   -.551E-01 0.831E+00 0.164E-01   0.698E-05 0.468E-05 0.198E-05
   0.454E+01 -.204E+02 0.101E+01   -.449E+01 0.196E+02 -.103E+01   -.551E-01 0.831E+00 0.164E-01   0.705E-05 0.468E-05 0.200E-05
   -.454E+01 -.204E+02 -.101E+01   0.449E+01 0.196E+02 0.103E+01   0.551E-01 0.831E+00 -.164E-01   -.703E-05 0.462E-05 -.199E-05
   -.454E+01 -.204E+02 -.101E+01   0.449E+01 0.196E+02 0.103E+01   0.551E-01 0.831E+00 -.164E-01   -.699E-05 0.462E-05 -.201E-05
   -.454E+01 -.204E+02 -.101E+01   0.449E+01 0.196E+02 0.103E+01   0.551E-01 0.831E+00 -.164E-01   -.703E-05 0.468E-05 -.198E-05
   -.454E+01 -.204E+02 -.101E+01   0.449E+01 0.196E+02 0.103E+01   0.551E-01 0.831E+00 -.164E-01   -.699E-05 0.468E-05 -.200E-05
   -.553E+01 -.204E+02 0.135E+01   0.542E+01 0.193E+02 -.138E+01   0.110E+00 0.109E+01 0.328E-01   0.361E-05 -.289E-05 0.203E-05
   -.553E+01 -.204E+02 0.135E+01   0.542E+01 0.193E+02 -.138E+01   0.110E+00 0.109E+01 0.328E-01   0.366E-05 -.289E-05 0.202E-05
   -.553E+01 -.204E+02 0.135E+01   0.542E+01 0.193E+02 -.138E+01   0.110E+00 0.109E+01 0.328E-01   0.361E-05 -.284E-05 0.203E-05
   -.553E+01 -.204E+02 0.135E+01   0.542E+01 0.193E+02 -.138E+01   0.110E+00 0.109E+01 0.328E-01   0.366E-05 -.284E-05 0.203E-05
   0.553E+01 -.204E+02 -.135E+01   -.542E+01 0.193E+02 0.138E+01   -.110E+00 0.109E+01 -.328E-01   -.365E-05 -.289E-05 -.202E-05
   0.553E+01 -.204E+02 -.135E+01   -.542E+01 0.193E+02 0.138E+01   -.110E+00 0.109E+01 -.328E-01   -.362E-05 -.289E-05 -.202E-05
   0.553E+01 -.204E+02 -.135E+01   -.542E+01 0.193E+02 0.138E+01   -.110E+00 0.109E+01 -.328E-01   -.365E-05 -.284E-05 -.203E-05
   0.553E+01 -.204E+02 -.135E+01   -.542E+01 0.193E+02 0.138E+01   -.110E+00 0.109E+01 -.328E-01   -.362E-05 -.284E-05 -.203E-05
   -.553E+01 -.204E+02 0.135E+01   0.542E+01 0.193E+02 -.138E+01   0.110E+00 0.109E+01 0.328E-01   0.362E-05 -.288E-05 0.203E-05
   -.553E+01 -.204E+02 0.135E+01   0.542E+01 0.193E+02 -.138E+01   0.110E+00 0.109E+01 0.328E-01   0.365E-05 -.288E-05 0.201E-05
   -.553E+01 -.204E+02 0.135E+01   0.542E+01 0.193E+02 -.138E+01   0.110E+00 0.109E+01 0.328E-01   0.362E-05 -.285E-05 0.204E-05
   -.553E+01 -.204E+02 0.135E+01   0.542E+01 0.193E+02 -.138E+01   0.110E+00 0.109E+01 0.328E-01   0.365E-05 -.285E-05 0.202E-05
   0.553E+01 -.204E+02 -.135E+01   -.542E+01 0.193E+02 0.138E+01   -.110E+00 0.109E+01 -.328E-01   -.366E-05 -.288E-05 -.203E-05
   0.553E+01 -.204E+02 -.135E+01   -.542E+01 0.193E+02 0.138E+01   -.110E+00 0.109E+01 -.328E-01   -.361E-05 -.288E-05 -.202E-05
   0.553E+01 -.204E+02 -.135E+01   -.542E+01 0.193E+02 0.138E+01   -.110E+00 0.109E+01 -.328E-01   -.366E-05 -.285E-05 -.204E-05
   0.553E+01 -.204E+02 -.135E+01   -.542E+01 0.193E+02 0.138E+01   -.110E+00 0.109E+01 -.328E-01   -.361E-05 -.285E-05 -.202E-05
 -----------------------------------------------------------------------------------------------
   -.394E-05 -.352E+02 -.275E-03   0.924E-13 0.355E-13 0.149E-12   0.444E-15 0.352E+02 -.347E-16   -.170E-10 -.212E-03 -.286E-10
 
 
 POSITION                                       TOTAL-FORCE (eV/Angst)
 -----------------------------------------------------------------------------------
      1.36789      1.27384      1.34826        -0.000185     -0.001608      0.000397
      6.62297      1.27384      1.51341        -0.000185     -0.001608      0.000397
      1.36789      6.53396      1.34826        -0.000185     -0.001608      0.000397
      6.62297      6.53396      1.51341        -0.000185     -0.001608      0.000397
      3.96895      3.90390      1.41817         0.000185     -0.001608     -0.000397
      9.22403      3.90390      1.58333         0.000185     -0.001608     -0.000397
      3.96895      9.16402      1.41817         0.000185     -0.001608     -0.000397
      9.22403      9.16402      1.58333         0.000185     -0.001608     -0.000397
      1.59990      3.90509      9.14579         0.000000     -0.000246      0.000000
      6.85498      3.90509      9.31094         0.000000     -0.000246      0.000000
      1.59990      9.16521      9.14579         0.000000     -0.000246      0.000000
      6.85498      9.16521      9.31094         0.000000     -0.000246      0.000000
      4.22744      1.29675      9.22836         0.000000      0.000163      0.000000
      9.48252      1.29675      9.39351         0.000000      0.000163      0.000000
      4.22744      6.55686      9.22836         0.000000      0.000163      0.000000
      9.48252      6.55686      9.39351         0.000000      0.000163      0.000000
      1.50491      1.27384      6.53817         0.000185     -0.001608     -0.000397
      6.75999      1.27384      6.70332         0.000185     -0.001608     -0.000397
      1.50491      6.53396      6.53817         0.000185     -0.001608     -0.000397
      6.75999      6.53396      6.70332         0.000185     -0.001608     -0.000397
      4.15893      3.90390      6.63341        -0.000185     -0.001608      0.000397
      9.41401      3.90390      6.79856        -0.000185     -0.001608      0.000397
      4.15893      9.16402      6.63341        -0.000185     -0.001608      0.000397
      9.41401      9.16402      6.79856        -0.000185     -0.001608      0.000397
      4.06394      1.27503      4.02579         0.000000     -0.000246      0.000000
      9.31902      1.27503      4.19094         0.000000     -0.000246      0.000000
      4.06394      6.53515      4.02579         0.000000     -0.000246      0.000000
      9.31902      6.53515      4.19094         0.000000     -0.000246      0.000000
      1.43640      3.92680      3.94322         0.000000      0.000163      0.000000
      6.69148      3.92680      4.10837         0.000000      0.000163      0.000000
      1.43640      9.18692      3.94322         0.000000      0.000163      0.000000
      6.69148      9.18692      4.10837         0.000000      0.000163      0.000000
     10.66153      0.03632      5.53258        -0.001585      0.000134     -0.001125
      5.40645      0.03632      5.36743        -0.001585      0.000134     -0.001125
     10.66153      5.29643      5.53258        -0.001585      0.000134     -0.001125
      5.40645      5.29643      5.36743        -0.001585      0.000134     -0.001125
      2.72143      0.03632      2.68415         0.001585      0.000134      0.001125
      7.97651      0.03632      2.84930         0.001585      0.000134      0.001125
      2.72143      5.29643      2.68415         0.001585      0.000134      0.001125
      7.97651      5.29643      2.84930         0.001585      0.000134      0.001125
      2.61540      2.66637      0.08229        -0.001585      0.000134     -0.001125
      7.87049      2.66637      0.24744        -0.001585      0.000134     -0.001125
      2.61540      7.92649      0.08229        -0.001585      0.000134     -0.001125
      7.87049      7.92649      0.24744        -0.001585      0.000134     -0.001125
      0.25739      2.66637      7.80414         0.001585      0.000134      0.001125
      5.51247      2.66637      7.96929         0.001585      0.000134      0.001125
      0.25739      7.92649      7.80414         0.001585      0.000134      0.001125
      5.51247      7.92649      7.96929         0.001585      0.000134      0.001125
     10.50359      0.03401      0.33244        -0.000641      0.001515     -0.001161
      5.24850      0.03401      0.16729        -0.000641      0.001515     -0.001161
     10.50359      5.29413      0.33244        -0.000641      0.001515     -0.001161
      5.24850      5.29413      0.16729        -0.000641      0.001515     -0.001161
      2.87937      0.03401      7.88429         0.000641      0.001515      0.001161
      8.13445      0.03401      8.04944         0.000641      0.001515      0.001161
      2.87937      5.29413      7.88429         0.000641      0.001515      0.001161
      8.13445      5.29413      8.04944         0.000641      0.001515      0.001161
      2.78446      2.66407      5.28729        -0.000641      0.001515     -0.001161
      8.03954      2.66407      5.45244        -0.000641      0.001515     -0.001161
      2.78446      7.92419      5.28729        -0.000641      0.001515     -0.001161
      8.03954      7.92419      5.45244        -0.000641      0.001515     -0.001161
      0.08833      2.66407      2.59914         0.000641      0.001515      0.001161
      5.34341      2.66407      2.76429         0.000641      0.001515      0.001161
      0.08833      7.92419      2.59914         0.000641      0.001515      0.001161
      5.34341      7.92419      2.76429         0.000641      0.001515      0.001161
 -----------------------------------------------------------------------------------
    total drift:                               -0.000004      0.021625     -0.000275


--------------------------------------------------------------------------------------------------------



  FREE ENERGIE OF THE ION-ELECTRON SYSTEM (eV)
  ---------------------------------------------------
  free  energy   TOTEN  =      -327.70124028 eV

  energy  without entropy=     -327.70124028  energy(sigma->0) =     -327.70124028
 


--------------------------------------------------------------------------------------------------------


    POTLOK:  cpu time    0.1587: real time    0.1595


--------------------------------------------------------------------------------------------------------


 writing wavefunctions
     LOOP+:  cpu time 3108.6468: real time 3131.2713
    4ORBIT:  cpu time    0.0000: real time    0.0000
 


 total charge     
 
# of ion       s       p       d       tot
------------------------------------------
    1        1.314   2.409   0.000   3.723
    2        1.314   2.409   0.000   3.723
    3        1.314   2.409   0.000   3.723
    4        1.314   2.409   0.000   3.723
    5        1.314   2.409   0.000   3.723
    6        1.314   2.409   0.000   3.723
    7        1.314   2.409   0.000   3.723
    8        1.314   2.409   0.000   3.723
    9        1.315   2.406   0.000   3.721
   10        1.315   2.406   0.000   3.721
   11        1.315   2.406   0.000   3.721
   12        1.315   2.406   0.000   3.721
   13        1.313   2.412   0.000   3.725
   14        1.313   2.412   0.000   3.725
   15        1.313   2.412   0.000   3.725
   16        1.313   2.412   0.000   3.725
   17        1.314   2.409   0.000   3.723
   18        1.314   2.409   0.000   3.723
   19        1.314   2.409   0.000   3.723
   20        1.314   2.409   0.000   3.723
   21        1.314   2.409   0.000   3.723
   22        1.314   2.409   0.000   3.723
   23        1.314   2.409   0.000   3.723
   24        1.314   2.409   0.000   3.723
   25        1.315   2.406   0.000   3.721
   26        1.315   2.406   0.000   3.721
   27        1.315   2.406   0.000   3.721
   28        1.315   2.406   0.000   3.721
   29        1.313   2.412   0.000   3.725
   30        1.313   2.412   0.000   3.725
   31        1.313   2.412   0.000   3.725
   32        1.313   2.412   0.000   3.725
   33        0.259   6.201   8.917  15.377
   34        0.259   6.201   8.917  15.377
   35        0.259   6.201   8.917  15.377
   36        0.259   6.201   8.917  15.377
   37        0.259   6.201   8.917  15.377
   38        0.259   6.201   8.917  15.377
   39        0.259   6.201   8.917  15.377
   40        0.259   6.201   8.917  15.377
   41        0.259   6.201   8.917  15.377
   42        0.259   6.201   8.917  15.377
   43        0.259   6.201   8.917  15.377
   44        0.259   6.201   8.917  15.377
   45        0.259   6.201   8.917  15.377
   46        0.259   6.201   8.917  15.377
   47        0.259   6.201   8.917  15.377
   48        0.259   6.201   8.917  15.377
   49        0.349   6.350   5.821  12.520
   50        0.349   6.350   5.821  12.520
   51        0.349   6.350   5.821  12.520
   52        0.349   6.350   5.821  12.520
   53        0.349   6.350   5.821  12.520
   54        0.349   6.350   5.821  12.520
   55        0.349   6.350   5.821  12.520
   56        0.349   6.350   5.821  12.520
   57        0.349   6.350   5.821  12.520
   58        0.349   6.350   5.821  12.520
   59        0.349   6.350   5.821  12.520
   60        0.349   6.350   5.821  12.520
   61        0.349   6.350   5.821  12.520
   62        0.349   6.350   5.821  12.520
   63        0.349   6.350   5.821  12.520
   64        0.349   6.350   5.821  12.520
--------------------------------------------------
tot         51.780 277.901 235.804 565.485
 


 magnetization (x)
 
# of ion       s       p       d       tot
------------------------------------------
    1       -0.000  -0.015   0.000  -0.015
    2       -0.000  -0.015   0.000  -0.015
    3       -0.000  -0.015   0.000  -0.015
    4       -0.000  -0.015   0.000  -0.015
    5        0.000   0.015   0.000   0.015
    6        0.000   0.015   0.000   0.015
    7        0.000   0.015   0.000   0.015
    8        0.000   0.015   0.000   0.015
    9        0.000  -0.000   0.000  -0.000
   10        0.000   0.000   0.000   0.000
   11        0.000  -0.000   0.000  -0.000
   12        0.000   0.000   0.000   0.000
   13        0.000  -0.000   0.000  -0.000
   14        0.000  -0.000   0.000  -0.000
   15        0.000  -0.000   0.000  -0.000
   16        0.000  -0.000   0.000  -0.000
   17        0.000   0.015   0.000   0.015
   18        0.000   0.015   0.000   0.015
   19        0.000   0.015   0.000   0.015
   20        0.000   0.015   0.000   0.015
   21       -0.000  -0.015   0.000  -0.015
   22       -0.000  -0.015   0.000  -0.015
   23       -0.000  -0.015   0.000  -0.015
   24       -0.000  -0.015   0.000  -0.015
   25        0.000   0.000   0.000   0.000
   26        0.000   0.000   0.000   0.000
   27       -0.000   0.000   0.000   0.000
   28        0.000   0.000   0.000   0.000
   29       -0.000   0.000   0.000   0.000
   30        0.000  -0.000   0.000  -0.000
   31        0.000   0.000   0.000   0.000
   32        0.000  -0.000   0.000  -0.000
   33        0.000   0.001  -0.002  -0.001
   34        0.000   0.001  -0.002  -0.001
   35        0.000   0.001  -0.002  -0.001
   36        0.000   0.001  -0.002  -0.001
   37       -0.000  -0.001   0.002   0.001
   38       -0.000  -0.001   0.002   0.001
   39       -0.000  -0.001   0.002   0.001
   40       -0.000  -0.001   0.002   0.001
   41        0.000   0.001  -0.002  -0.001
   42        0.000   0.001  -0.002  -0.001
   43        0.000   0.001  -0.002  -0.001
   44        0.000   0.001  -0.002  -0.001
   45       -0.000  -0.001   0.002   0.001
   46       -0.000  -0.001   0.002   0.001
   47       -0.000  -0.001   0.002   0.001
   48       -0.000  -0.001   0.002   0.001
   49        0.020   0.054   3.669   3.742
   50        0.020   0.054   3.669   3.742
   51        0.020   0.054   3.669   3.742
   52        0.020   0.054   3.669   3.742
   53       -0.020  -0.054  -3.669  -3.742
   54       -0.020  -0.054  -3.669  -3.742
   55       -0.020  -0.054  -3.669  -3.742
   56       -0.020  -0.054  -3.669  -3.742
   57        0.020   0.054   3.669   3.742
   58        0.020   0.054   3.669   3.742
   59        0.020   0.054   3.669   3.742
   60        0.020   0.054   3.669   3.742
   61       -0.020  -0.054  -3.669  -3.742
   62       -0.020  -0.054  -3.669  -3.742
   63       -0.020  -0.054  -3.669  -3.742
   64       -0.020  -0.054  -3.669  -3.742
--------------------------------------------------
tot         -0.000   0.000  -0.000  -0.000
 
 BZINTS: Fermi energy:  4.922746;688.000000 electrons
         Band energy:***********;  BLOECHL correction:  0.000000

 total amount of memory used by VASP MPI-rank0   348353. kBytes
=======================================================================

   base      :      30000. kBytes
   nonl-proj :     216760. kBytes
   fftplans  :       4588. kBytes
   grid      :      69719. kBytes
   one-center:       1990. kBytes
   wavefun   :      25296. kBytes
 
  
  
 General timing and accounting informations for this job:
 ========================================================
  
                  Total CPU time used (sec):     3168.052
                            User time (sec):     3156.649
                          System time (sec):       11.404
                         Elapsed time (sec):     3192.061
  
                   Maximum memory used (kb):      719532.
                   Average memory used (kb):           0.
  
                          Minor page faults:       551462
                          Major page faults:         5588
                 Voluntary context switches:         7323
