 vasp.5.4.4.18Apr17-6-g9f103f2a35 (build Oct 30 2023 17:30:16) complex          
  
 executed on             LinuxIFC date 2024.06.21  00:02:10
 running on  256 total cores
 distrk:  each k-point on  256 cores,    1 groups
 distr:  one band on NCORES_PER_BAND=   1 cores,  256 groups


--------------------------------------------------------------------------------------------------------


 INCAR:
 POTCAR:    PAW_PBE S 06Sep2000                   
 POTCAR:     PAW_PBE Cu_pv 06Sep2000              
 POTCAR:     PAW_PBE Fe_pv 02Aug2007              

 ----------------------------------------------------------------------------- 
|                                                                             |
|           W    W    AA    RRRRR   N    N  II  N    N   GGGG   !!!           |
|           W    W   A  A   R    R  NN   N  II  NN   N  G    G  !!!           |
|           W    W  A    A  R    R  N N  N  II  N N  N  G       !!!           |
|           W WW W  AAAAAA  RRRRR   N  N N  II  N  N N  G  GGG   !            |
|           WW  WW  A    A  R   R   N   NN  II  N   NN  G    G                |
|           W    W  A    A  R    R  N    N  II  N    N   GGGG   !!!           |
|                                                                             |
|      For optimal performance we recommend to set                            |
|        NCORE= 4 - approx SQRT( number of cores)                             |
|      NCORE specifies how many cores store one orbital (NPAR=cpu/NCORE).     |
|      This setting can  greatly improve the performance of VASP for DFT.     |
|      The default,   NCORE=1            might be grossly inefficient         |
|      on modern multi-core architectures or massively parallel machines.     |
|      Do your own testing !!!!                                               |
|      Unfortunately you need to use the default for GW and RPA calculations. |
|      (for HF NCORE is supported but not extensively tested yet)             |
|                                                                             |
 ----------------------------------------------------------------------------- 

 POTCAR:    PAW_PBE S 06Sep2000                   
   SHA256 =  0fc7481fb0695f01bdc6462160264c5c84044ae9ec85a907d398b887a2bc3132 S/
   COPYR  = (c) Copyright 06Sep2000 Georg Kresse                                
   COPYR  = This file is part of the software VASP. Any use, copying, and all ot
   COPYR  = If you do not have a valid VASP license, you may not use, copy or di
   VRHFIN =S : s2p4                                                             
   LEXCH  = PE                                                                  
   EATOM  =   276.8230 eV,   20.3459 Ry                                         
                                                                                
   TITEL  = PAW_PBE S 06Sep2000                                                 
   LULTRA =        F    use ultrasoft PP ?                                      
   IUNSCR =        1    unscreen: 0-lin 1-nonlin 2-no                           
   RPACOR =    1.500    partial core radius                                     
   POMASS =   32.066; ZVAL   =    6.000    mass and valenz                      
   RCORE  =    1.900    outmost cutoff radius                                   
   RWIGS  =    2.200; RWIGS  =    1.164    wigner-seitz radius (au A)           
   ENMAX  =  258.689; ENMIN  =  194.016 eV                                      
   ICORE  =        2    local potential                                         
   LCOR   =        T    correct aug charges                                     
   LPAW   =        T    paw PP                                                  
   EAUG   =  335.092                                                            
   DEXC   =    0.000                                                            
   RMAX   =    1.942    core radius for proj-oper                               
   RAUG   =    1.300    factor for augmentation sphere                          
   RDEP   =    1.954    radius for radial grids                                 
   RDEPT  =    1.744    core radius for aug-charge                              
                                                                                
   Atomic configuration                                                         
    6 entries                                                                   
     n  l   j            E        occ.                                          
     1  0  0.50     -2405.8406   2.0000                                         
     2  0  0.50      -211.7007   2.0000                                         
     2  1  1.50      -156.4958   6.0000                                         
     3  0  0.50       -17.2562   2.0000                                         
     3  1  0.50        -7.0085   4.0000                                         
     3  2  1.50        -6.8029   0.0000                                         
   Description                                                                  
     l       E           TYP  RCUT    TYP  RCUT                                 
     0    -17.2561641     23  1.900                                             
     0    -15.8743224     23  1.900                                             
     1     -7.0085400     23  1.900                                             
     1     -2.7779785     23  1.900                                             
     2     -6.8029130     23  1.900                                             
  local pseudopotential read in
  partial core-charges read in
  partial kinetic energy density read in
  atomic valenz-charges read in
  non local Contribution for L=           0  read in
    real space projection operators read in
  non local Contribution for L=           0  read in
    real space projection operators read in
  non local Contribution for L=           1  read in
    real space projection operators read in
  non local Contribution for L=           1  read in
    real space projection operators read in
    PAW grid and wavefunctions read in
 
   number of l-projection  operators is LMAX  =           4
   number of lm-projection operators is LMMAX =           8
 
 POTCAR:     PAW_PBE Cu_pv 06Sep2000              
   SHA256 =  cb7b504e2ea725fe1f25c85a9ac77d4012ce94cd394135b722c4e25ec297f1cb Cu
   COPYR  = (c) Copyright 06Sep2000 Georg Kresse                                
   COPYR  = This file is part of the software VASP. Any use, copying, and all ot
   COPYR  = If you do not have a valid VASP license, you may not use, copy or di
   VRHFIN =Cu: d10 p1                                                           
   LEXCH  = PE                                                                  
   EATOM  =  4120.1201 eV,  302.8203 Ry                                         
                                                                                
   TITEL  = PAW_PBE Cu_pv 06Sep2000                                             
   LULTRA =        F    use ultrasoft PP ?                                      
   IUNSCR =        1    unscreen: 0-lin 1-nonlin 2-no                           
   RPACOR =    1.500    partial core radius                                     
   POMASS =   63.546; ZVAL   =   17.000    mass and valenz                      
   RCORE  =    2.000    outmost cutoff radius                                   
   RWIGS  =    2.000; RWIGS  =    1.058    wigner-seitz radius (au A)           
   ENMAX  =  368.648; ENMIN  =  276.486 eV                                      
   RCLOC  =    1.304    cutoff for local pot                                    
   LCOR   =        T    correct aug charges                                     
   LPAW   =        T    paw PP                                                  
   EAUG   =  758.233                                                            
   DEXC   =    0.000                                                            
   RMAX   =    2.046    core radius for proj-oper                               
   RAUG   =    1.300    factor for augmentation sphere                          
   RDEP   =    2.025    radius for radial grids                                 
   RDEPT  =    1.558    core radius for aug-charge                              
                                                                                
   Atomic configuration                                                         
    8 entries                                                                   
     n  l   j            E        occ.                                          
     1  0  0.50     -8850.2467   2.0000                                         
     2  0  0.50     -1062.3498   2.0000                                         
     2  1  1.50      -916.8226   6.0000                                         
     3  0  0.50      -114.6929   2.0000                                         
     3  1  1.50       -72.1325   6.0000                                         
     3  2  2.50        -5.0394  10.0000                                         
     4  0  0.50        -4.6097   1.0000                                         
     4  3  2.50        -1.3606   0.0000                                         
   Description                                                                  
     l       E           TYP  RCUT    TYP  RCUT                                 
     1    -72.1324777     23  1.700                                             
     1     -1.3605826     23  1.700                                             
     2     -5.0393776     23  2.000                                             
     2     -6.3999602     23  2.000                                             
     0     -4.6097062     23  1.800                                             
     0     14.1620818     23  1.800                                             
  local pseudopotential read in
  partial core-charges read in
  partial kinetic energy density read in
  atomic valenz-charges read in
  non local Contribution for L=           1  read in
    real space projection operators read in
  non local Contribution for L=           1  read in
    real space projection operators read in
  non local Contribution for L=           2  read in
    real space projection operators read in
  non local Contribution for L=           2  read in
    real space projection operators read in
  non local Contribution for L=           0  read in
    real space projection operators read in
  non local Contribution for L=           0  read in
    real space projection operators read in
    PAW grid and wavefunctions read in
 
   number of l-projection  operators is LMAX  =           6
   number of lm-projection operators is LMMAX =          18
 
 POTCAR:     PAW_PBE Fe_pv 02Aug2007              
   SHA256 =  5d22e414b1f82158bf2c7ecb8b97b28fd0923e48cadc1c3bf74d524558f5dd32 Fe
   COPYR  = (c) Copyright 02Aug2007 Georg Kresse                                
   COPYR  = This file is part of the software VASP. Any use, copying, and all ot
   COPYR  = If you do not have a valid VASP license, you may not use, copy or di
   VRHFIN =Fe:  3pd7s1                                                          
   LEXCH  = PE                                                                  
   EATOM  =  2457.4239 eV,  180.6156 Ry                                         
                                                                                
   TITEL  = PAW_PBE Fe_pv 02Aug2007                                             
   LULTRA =        F    use ultrasoft PP ?                                      
   IUNSCR =        1    unscreen: 0-lin 1-nonlin 2-no                           
   RPACOR =    1.750    partial core radius                                     
   POMASS =   55.847; ZVAL   =   14.000    mass and valenz                      
   RCORE  =    2.200    outmost cutoff radius                                   
   RWIGS  =    2.200; RWIGS  =    1.164    wigner-seitz radius (au A)           
   ENMAX  =  293.238; ENMIN  =  219.928 eV                                      
   ICORE  =        3    local potential                                         
   LCOR   =        T    correct aug charges                                     
   LPAW   =        T    paw PP                                                  
   EAUG   =  578.342                                                            
   DEXC   =    0.000                                                            
   RMAX   =    2.249    core radius for proj-oper                               
   RAUG   =    1.300    factor for augmentation sphere                          
   RDEP   =    2.296    radius for radial grids                                 
   RDEPT  =    1.766    core radius for aug-charge                              
                                                                                
   Atomic configuration                                                         
    8 entries                                                                   
     n  l   j            E        occ.                                          
     1  0  0.50     -6993.8440   2.0000                                         
     2  0  0.50      -814.6047   2.0000                                         
     2  1  1.50      -693.3689   6.0000                                         
     3  0  0.50       -89.4732   2.0000                                         
     3  1  1.50       -55.6373   6.0000                                         
     3  2  2.50        -3.8151   7.0000                                         
     4  0  0.50        -4.2551   1.0000                                         
     4  3  2.50        -1.3606   0.0000                                         
   Description                                                                  
     l       E           TYP  RCUT    TYP  RCUT                                 
     1    -55.6372668     23  2.000                                             
     1     -5.4423304     23  2.000                                             
     2     -3.8151096     23  2.200                                             
     2     -5.1756922     23  2.200                                             
     0     -4.2550951     23  2.200                                             
     0     27.2116520     23  2.200                                             
     3     -1.3605826     23  2.200                                             
  local pseudopotential read in
  partial core-charges read in
  partial kinetic energy density read in
  atomic valenz-charges read in
  non local Contribution for L=           1  read in
    real space projection operators read in
  non local Contribution for L=           1  read in
    real space projection operators read in
  non local Contribution for L=           2  read in
    real space projection operators read in
  non local Contribution for L=           2  read in
    real space projection operators read in
  non local Contribution for L=           0  read in
    real space projection operators read in
  non local Contribution for L=           0  read in
    real space projection operators read in
    PAW grid and wavefunctions read in
 
   number of l-projection  operators is LMAX  =           6
   number of lm-projection operators is LMMAX =          18
 

 ----------------------------------------------------------------------------- 
|                                                                             |
|  ADVICE TO THIS USER RUNNING 'VASP/VAMP'   (HEAR YOUR MASTER'S VOICE ...):  |
|                                                                             |
|      You have a (more or less) 'large supercell' and for larger cells       |
|      it might be more efficient to use real space projection opertators     |
|      So try LREAL= Auto  in the INCAR   file.                               |
|      Mind:          For very  accurate calculation you might also keep the  |
|      reciprocal projection scheme          (i.e. LREAL=.FALSE.)             |
|                                                                             |
 ----------------------------------------------------------------------------- 


 ----------------------------------------------------------------------------- 
|                                                                             |
|  ADVICE TO THIS USER RUNNING 'VASP/VAMP'   (HEAR YOUR MASTER'S VOICE ...):  |
|                                                                             |
|      You enforced a specific xc-type in the INCAR file,                     |
|      a different type was found on the POTCAR file                          |
|          I HOPE YOU KNOW, WHAT YOU ARE  DOING                               |
|                                                                             |
 ----------------------------------------------------------------------------- 

  PAW_PBE S 06Sep2000                   :
 energy of atom  1       EATOM= -276.8230
 kinetic energy error for atom=    0.0007 (will be added to EATOM!!)
   PAW_PBE Cu_pv 06Sep2000              :
 energy of atom  2       EATOM=-4120.1201
 kinetic energy error for atom=    0.0094 (will be added to EATOM!!)
   PAW_PBE Fe_pv 02Aug2007              :
 energy of atom  3       EATOM=-2457.4239
 kinetic energy error for atom=    0.0025 (will be added to EATOM!!)
 
 
 POSCAR: Fe16 Cu16 S32                           
  positions in direct lattice
  velocities in cartesian coordinates
 exchange correlation table for  LEXCH =       14
   RHO(1)=    0.500       N(1)  =     2000
   RHO(2)=  100.500       N(2)  =     4000
 


--------------------------------------------------------------------------------------------------------


 ion  position               nearest neighbor table
   1  0.126  0.126  0.117-  37 2.25  61 2.27  41 2.28  49 2.30
   2  0.626  0.126  0.117-  38 2.25  62 2.27  42 2.28  50 2.30
   3  0.126  0.626  0.117-  39 2.25  63 2.27  43 2.28  51 2.30
   4  0.626  0.626  0.117-  40 2.25  64 2.27  44 2.28  52 2.30
   5  0.374  0.374  0.117-  39 2.25  62 2.27  41 2.28  52 2.30
   6  0.874  0.374  0.117-  40 2.25  61 2.27  42 2.28  51 2.30
   7  0.374  0.874  0.117-  37 2.25  64 2.27  43 2.28  50 2.30
   8  0.874  0.874  0.117-  38 2.25  63 2.27  44 2.28  49 2.30
   9  0.124  0.374  0.867-  41 2.25  51 2.27  45 2.28  55 2.30
  10  0.624  0.374  0.867-  42 2.25  52 2.27  46 2.28  56 2.30
  11  0.124  0.874  0.867-  43 2.25  49 2.27  47 2.28  53 2.30
  12  0.624  0.874  0.867-  44 2.25  50 2.27  48 2.28  54 2.30
  13  0.376  0.126  0.867-  41 2.25  50 2.27  46 2.28  53 2.30
  14  0.876  0.126  0.867-  42 2.25  49 2.27  45 2.28  54 2.30
  15  0.376  0.626  0.867-  43 2.25  52 2.27  48 2.28  55 2.30
  16  0.876  0.626  0.867-  44 2.25  51 2.27  47 2.28  56 2.30
  17  0.124  0.124  0.617-  45 2.25  53 2.27  33 2.28  57 2.30
  18  0.624  0.124  0.617-  46 2.25  54 2.27  34 2.28  58 2.30
  19  0.124  0.624  0.617-  47 2.25  55 2.27  35 2.28  59 2.30
  20  0.624  0.624  0.617-  48 2.25  56 2.27  36 2.28  60 2.30
  21  0.376  0.376  0.617-  46 2.25  55 2.27  36 2.28  57 2.30
  22  0.876  0.376  0.617-  45 2.25  56 2.27  35 2.28  58 2.30
  23  0.376  0.876  0.617-  48 2.25  53 2.27  34 2.28  59 2.30
  24  0.876  0.876  0.617-  47 2.25  54 2.27  33 2.28  60 2.30
  25  0.374  0.124  0.367-  34 2.25  57 2.27  37 2.28  62 2.30
  26  0.874  0.124  0.367-  33 2.25  58 2.27  38 2.28  61 2.30
  27  0.374  0.624  0.367-  36 2.25  59 2.27  39 2.28  64 2.30
  28  0.874  0.624  0.367-  35 2.25  60 2.27  40 2.28  63 2.30
  29  0.126  0.376  0.367-  35 2.25  57 2.27  39 2.28  61 2.30
  30  0.626  0.376  0.367-  36 2.25  58 2.27  40 2.28  62 2.30
  31  0.126  0.876  0.367-  33 2.25  59 2.27  37 2.28  63 2.30
  32  0.626  0.876  0.367-  34 2.25  60 2.27  38 2.28  64 2.30
  33  0.000  0.000  0.507-  26 2.25  31 2.25  17 2.28  24 2.28
  34  0.500  0.000  0.507-  25 2.25  32 2.25  18 2.28  23 2.28
  35  0.000  0.500  0.507-  28 2.25  29 2.25  19 2.28  22 2.28
  36  0.500  0.500  0.507-  27 2.25  30 2.25  20 2.28  21 2.28
  37  0.250  0.000  0.257-   1 2.25   7 2.25  25 2.28  31 2.28
  38  0.750  0.000  0.257-   2 2.25   8 2.25  26 2.28  32 2.28
  39  0.250  0.500  0.257-   3 2.25   5 2.25  27 2.28  29 2.28
  40  0.750  0.500  0.257-   4 2.25   6 2.25  28 2.28  30 2.28
  41  0.250  0.250  0.007-   9 2.25  13 2.25   1 2.28   5 2.28
  42  0.750  0.250  0.007-  10 2.25  14 2.25   2 2.28   6 2.28
  43  0.250  0.750  0.007-  11 2.25  15 2.25   3 2.28   7 2.28
  44  0.750  0.750  0.007-  12 2.25  16 2.25   4 2.28   8 2.28
  45  0.000  0.250  0.757-  17 2.25  22 2.25   9 2.28  14 2.28
  46  0.500  0.250  0.757-  18 2.25  21 2.25  10 2.28  13 2.28
  47  0.000  0.750  0.757-  19 2.25  24 2.25  11 2.28  16 2.28
  48  0.500  0.750  0.757-  20 2.25  23 2.25  12 2.28  15 2.28
  49  0.000  0.000  0.009-  11 2.27  14 2.27   1 2.30   8 2.30
  50  0.500  0.000  0.009-  12 2.27  13 2.27   2 2.30   7 2.30
  51  0.000  0.500  0.009-   9 2.27  16 2.27   3 2.30   6 2.30
  52  0.500  0.500  0.009-  10 2.27  15 2.27   4 2.30   5 2.30
  53  0.250  0.000  0.759-  17 2.27  23 2.27  11 2.30  13 2.30
  54  0.750  0.000  0.759-  18 2.27  24 2.27  12 2.30  14 2.30
  55  0.250  0.500  0.759-  19 2.27  21 2.27   9 2.30  15 2.30
  56  0.750  0.500  0.759-  20 2.27  22 2.27  10 2.30  16 2.30
  57  0.250  0.250  0.509-  25 2.27  29 2.27  17 2.30  21 2.30
  58  0.750  0.250  0.509-  26 2.27  30 2.27  18 2.30  22 2.30
  59  0.250  0.750  0.509-  27 2.27  31 2.27  19 2.30  23 2.30
  60  0.750  0.750  0.509-  28 2.27  32 2.27  20 2.30  24 2.30
  61  0.000  0.250  0.259-   1 2.27   6 2.27  26 2.30  29 2.30
  62  0.500  0.250  0.259-   2 2.27   5 2.27  25 2.30  30 2.30
  63  0.000  0.750  0.259-   3 2.27   8 2.27  28 2.30  31 2.30
  64  0.500  0.750  0.259-   4 2.27   7 2.27  27 2.30  32 2.30
 
  LATTYP: Found a base centered orthorhombic cell.
 ALAT       =    13.7895764253
 B/A-ratio  =     1.1503930537
 C/A-ratio  =     0.7574259338
  
  Lattice vectors:
  
 A1 = (  10.4839220000,   0.7332190000,   0.0000000000)
 A2 = (  -0.7332190000, -10.4839220000,   0.0000000000)
 A3 = (   0.0000000000,   0.0000000000, -10.4445828008)


Analysis of symmetry for initial positions (statically):
=====================================================================
 Subroutine PRICEL returns following result:
 
  LATTYP: Found a face centered orthorhombic cell.
 ALAT       =     6.8947882126
 B/A-ratio  =     1.1503930537
 C/A-ratio  =     1.5148518676
  
  Lattice vectors:
  
 A1 = (  -2.8042852500,  -2.8042852500,   5.2222914004)
 A2 = (  -2.4376757500,   2.4376757500,   5.2222914004)
 A3 = (  -5.2419610000,  -0.3666095000,   0.0000000000)
 
   8 primitive cells build up your supercell.
 

 Routine SETGRP: Setting up the symmetry group for a 
 base centered orthorhombic supercell.


 Subroutine GETGRP returns: Found  4 space group operations
 (whereof  2 operations were pure point group operations)
 out of a pool of  8 trial point group operations.


The static configuration has the point symmetry C_2 .
 The point group associated with its full space group is C_2v.


Analysis of symmetry for dynamics (positions and initial velocities):
=====================================================================
 Subroutine PRICEL returns following result:
 
  LATTYP: Found a face centered orthorhombic cell.
 ALAT       =     6.8947882126
 B/A-ratio  =     1.1503930537
 C/A-ratio  =     1.5148518676
  
  Lattice vectors:
  
 A1 = (  -2.8042852500,  -2.8042852500,   5.2222914004)
 A2 = (  -2.4376757500,   2.4376757500,   5.2222914004)
 A3 = (  -5.2419610000,  -0.3666095000,   0.0000000000)
 
   8 primitive cells build up your supercell.
 

 Routine SETGRP: Setting up the symmetry group for a 
 base centered orthorhombic supercell.


 Subroutine GETGRP returns: Found  4 space group operations
 (whereof  2 operations were pure point group operations)
 out of a pool of  8 trial point group operations.


The dynamic configuration has the point symmetry C_2 .
 The point group associated with its full space group is C_2v.


Analysis of structural, dynamic, and magnetic symmetry:
=====================================================================
 Subroutine PRICEL returns following result:
 
  LATTYP: Found a face centered orthorhombic cell.
 ALAT       =     6.8947882126
 B/A-ratio  =     1.1503930537
 C/A-ratio  =     1.5148518676
  
  Lattice vectors:
  
 A1 = (  -2.8042852500,  -2.8042852500,   5.2222914004)
 A2 = (  -2.4376757500,   2.4376757500,   5.2222914004)
 A3 = (  -5.2419610000,  -0.3666095000,   0.0000000000)
 
   8 primitive cells build up your supercell.
 

 Routine SETGRP: Setting up the symmetry group for a 
 base centered orthorhombic supercell.


 Subroutine GETGRP returns: Found  4 space group operations
 (whereof  2 operations were pure point group operations)
 out of a pool of  8 trial point group operations.


The magnetic configuration has the point symmetry C_2 .
 The point group associated with its full space group is C_2v.


 Subroutine INISYM returns: Found  4 space group operations
 (whereof  2 operations are pure point group operations),
 and found     8 'primitive' translations

 
 
 KPOINTS: Automatic mesh                          

Automatic generation of k-mesh.
Space group operators:
 irot       det(A)        alpha          n_x          n_y          n_z        tau_x        tau_y        tau_z
    1     1.000000     0.000001     1.000000     0.000000     0.000000     0.000000     0.000000     0.000000
    2     1.000000   180.000000     0.000000     0.000000     1.000000     0.000000     0.000000     0.000000
    3    -1.000000   180.000000     0.707107     0.707107     0.000000    -0.750000     0.000000     0.750000
    4    -1.000000   180.000000     0.707107    -0.707107     0.000000    -0.750000     0.000000     0.750000
 
 Subroutine IBZKPT returns following result:
 ===========================================
 
 Found     21 irreducible k-points:
 
 Following reciprocal coordinates:
            Coordinates               Weight
  0.000000  0.000000  0.000000      1.000000
  0.250000  0.000000  0.000000      4.000000
  0.500000  0.000000  0.000000      2.000000
  0.250000  0.250000  0.000000      2.000000
  0.500000  0.250000  0.000000      4.000000
 -0.250000  0.250000  0.000000      2.000000
  0.500000  0.500000  0.000000      1.000000
  0.000000  0.000000  0.250000      2.000000
  0.250000  0.000000  0.250000      8.000000
  0.500000  0.000000  0.250000      4.000000
  0.250000  0.250000  0.250000      4.000000
  0.500000  0.250000  0.250000      8.000000
 -0.250000  0.250000  0.250000      4.000000
  0.500000  0.500000  0.250000      2.000000
  0.000000  0.000000  0.500000      1.000000
  0.250000  0.000000  0.500000      4.000000
  0.500000  0.000000  0.500000      2.000000
  0.250000  0.250000  0.500000      2.000000
  0.500000  0.250000  0.500000      4.000000
 -0.250000  0.250000  0.500000      2.000000
  0.500000  0.500000  0.500000      1.000000
 
 Following cartesian coordinates:
            Coordinates               Weight
  0.000000  0.000000  0.000000      1.000000
  0.023963 -0.001676  0.000000      4.000000
  0.047926 -0.003352  0.000000      2.000000
  0.022287  0.022287  0.000000      2.000000
  0.046251  0.020611  0.000000      4.000000
 -0.025639  0.025639  0.000000      2.000000
  0.044575  0.044575  0.000000      1.000000
  0.000000  0.000000  0.023936      2.000000
  0.023963 -0.001676  0.023936      8.000000
  0.047926 -0.003352  0.023936      4.000000
  0.022287  0.022287  0.023936      4.000000
  0.046251  0.020611  0.023936      8.000000
 -0.025639  0.025639  0.023936      4.000000
  0.044575  0.044575  0.023936      2.000000
  0.000000  0.000000  0.047872      1.000000
  0.023963 -0.001676  0.047872      4.000000
  0.047926 -0.003352  0.047872      2.000000
  0.022287  0.022287  0.047872      2.000000
  0.046251  0.020611  0.047872      4.000000
 -0.025639  0.025639  0.047872      2.000000
  0.044575  0.044575  0.047872      1.000000
 
 TETIRR: Found     96 inequivalent tetrahedra from      384
 
 Subroutine IBZKPT_HF returns following result:
 ==============================================
 
 Found     64 k-points in 1st BZ
 the following     64 k-points will be used (e.g. in the exchange kernel)
 Following reciprocal coordinates:   # in IRBZ
  0.000000  0.000000  0.000000    0.01562500   1 t-inv F
  0.250000  0.000000  0.000000    0.01562500   2 t-inv F
  0.500000  0.000000  0.000000    0.01562500   3 t-inv F
  0.250000  0.250000  0.000000    0.01562500   4 t-inv F
  0.500000  0.250000  0.000000    0.01562500   5 t-inv F
 -0.250000  0.250000  0.000000    0.01562500   6 t-inv F
  0.500000  0.500000  0.000000    0.01562500   7 t-inv F
  0.000000  0.000000  0.250000    0.01562500   8 t-inv F
  0.250000  0.000000  0.250000    0.01562500   9 t-inv F
  0.500000  0.000000  0.250000    0.01562500  10 t-inv F
  0.250000  0.250000  0.250000    0.01562500  11 t-inv F
  0.500000  0.250000  0.250000    0.01562500  12 t-inv F
 -0.250000  0.250000  0.250000    0.01562500  13 t-inv F
  0.500000  0.500000  0.250000    0.01562500  14 t-inv F
  0.000000  0.000000  0.500000    0.01562500  15 t-inv F
  0.250000  0.000000  0.500000    0.01562500  16 t-inv F
  0.500000  0.000000  0.500000    0.01562500  17 t-inv F
  0.250000  0.250000  0.500000    0.01562500  18 t-inv F
  0.500000  0.250000  0.500000    0.01562500  19 t-inv F
 -0.250000  0.250000  0.500000    0.01562500  20 t-inv F
  0.500000  0.500000  0.500000    0.01562500  21 t-inv F
 -0.250000  0.000000  0.000000    0.01562500   2 t-inv F
  0.000000 -0.250000  0.000000    0.01562500   2 t-inv F spinflp
  0.000000  0.250000  0.000000    0.01562500   2 t-inv F spinflp
  0.000000 -0.500000  0.000000    0.01562500   3 t-inv F spinflp
 -0.250000 -0.250000  0.000000    0.01562500   4 t-inv F
 -0.500000 -0.250000  0.000000    0.01562500   5 t-inv F
 -0.250000 -0.500000  0.000000    0.01562500   5 t-inv F spinflp
  0.250000  0.500000  0.000000    0.01562500   5 t-inv F spinflp
  0.250000 -0.250000  0.000000    0.01562500   6 t-inv F
 -0.250000  0.000000  0.250000    0.01562500   9 t-inv F
  0.000000 -0.250000  0.250000    0.01562500   9 t-inv F spinflp
  0.000000  0.250000  0.250000    0.01562500   9 t-inv F spinflp
  0.000000 -0.500000  0.250000    0.01562500  10 t-inv F spinflp
 -0.250000 -0.250000  0.250000    0.01562500  11 t-inv F
 -0.500000 -0.250000  0.250000    0.01562500  12 t-inv F
 -0.250000 -0.500000  0.250000    0.01562500  12 t-inv F spinflp
  0.250000  0.500000  0.250000    0.01562500  12 t-inv F spinflp
  0.250000 -0.250000  0.250000    0.01562500  13 t-inv F
 -0.250000  0.000000  0.500000    0.01562500  16 t-inv F
  0.000000 -0.250000  0.500000    0.01562500  16 t-inv F spinflp
  0.000000  0.250000  0.500000    0.01562500  16 t-inv F spinflp
  0.000000 -0.500000  0.500000    0.01562500  17 t-inv F spinflp
 -0.250000 -0.250000  0.500000    0.01562500  18 t-inv F
 -0.500000 -0.250000  0.500000    0.01562500  19 t-inv F
 -0.250000 -0.500000  0.500000    0.01562500  19 t-inv F spinflp
  0.250000  0.500000  0.500000    0.01562500  19 t-inv F spinflp
  0.250000 -0.250000  0.500000    0.01562500  20 t-inv F
  0.000000  0.000000 -0.250000    0.01562500   8 t-inv T
 -0.250000  0.000000 -0.250000    0.01562500   9 t-inv T
  0.250000  0.000000 -0.250000    0.01562500   9 t-inv T
  0.000000  0.250000 -0.250000    0.01562500   9 t-inv T spinflp
  0.000000 -0.250000 -0.250000    0.01562500   9 t-inv T spinflp
 -0.500000  0.000000 -0.250000    0.01562500  10 t-inv T
  0.000000  0.500000 -0.250000    0.01562500  10 t-inv T spinflp
 -0.250000 -0.250000 -0.250000    0.01562500  11 t-inv T
  0.250000  0.250000 -0.250000    0.01562500  11 t-inv T
 -0.500000 -0.250000 -0.250000    0.01562500  12 t-inv T
  0.500000  0.250000 -0.250000    0.01562500  12 t-inv T
  0.250000  0.500000 -0.250000    0.01562500  12 t-inv T spinflp
 -0.250000 -0.500000 -0.250000    0.01562500  12 t-inv T spinflp
  0.250000 -0.250000 -0.250000    0.01562500  13 t-inv T
 -0.250000  0.250000 -0.250000    0.01562500  13 t-inv T
 -0.500000 -0.500000 -0.250000    0.01562500  14 t-inv T


--------------------------------------------------------------------------------------------------------




 Dimension of arrays:
   k-points           NKPTS =     21   k-points in BZ     NKDIM =     21   number of bands    NBANDS=    512
   number of dos      NEDOS =    301   number of ions     NIONS =     64
   non local maximal  LDIM  =      6   non local SUM 2l+1 LMDIM =     18
   total plane-waves  NPLWV = 829440
   max r-space proj   IRMAX =      1   max aug-charges    IRDMAX=  23071
   dimension x,y,z NGX =    96 NGY =   96 NGZ =   90
   dimension x,y,z NGXF=   192 NGYF=  192 NGZF=  180
   support grid    NGXF=   192 NGYF=  192 NGZF=  180
   ions per type =              32  16  16
   NGX,Y,Z   is equivalent  to a cutoff of  15.19, 15.19, 14.33 a.u.
   NGXF,Y,Z  is equivalent  to a cutoff of  30.37, 30.37, 28.65 a.u.

 SYSTEM =  CuFeS2                                  
 POSCAR =  Fe16 Cu16 S32                           

 Startparameter for this run:
   NWRITE =      2    write-flag & timer
   PREC   = accura    normal or accurate (medium, high low for compatibility)
   ISTART =      1    job   : 0-new  1-cont  2-samecut
   ICHARG =      1    charge: 1-file 2-atom 10-const
   ISPIN  =      2    spin polarized calculation?
   LNONCOLLINEAR =      F non collinear calculations
   LSORBIT =      F    spin-orbit coupling
   INIWAV =      1    electr: 0-lowe 1-rand  2-diag
   LASPH  =      F    aspherical Exc in radial PAW
   METAGGA=      F    non-selfconsistent MetaGGA calc.

 Electronic Relaxation 1
   ENCUT  =  700.0 eV  51.45 Ry    7.17 a.u.  22.67 22.67 22.53*2*pi/ulx,y,z
   ENINI  =  700.0     initial cutoff
   ENAUG  =  758.2 eV  augmentation charge cutoff
   NELM   =    500;   NELMIN=  2; NELMDL=  0     # of ELM steps 
   EDIFF  = 0.1E-07   stopping-criterion for ELM
   LREAL  =      F    real-space projection
   NLSPLINE    = F    spline interpolate recip. space projectors
   LCOMPAT=      F    compatible to vasp.4.4
   GGA_COMPAT  = T    GGA compatible to vasp.4.4-vasp.4.6
   LMAXPAW     = -100 max onsite density
   LMAXMIX     =    4 max onsite mixed and CHGCAR
   VOSKOWN=      0    Vosko Wilk Nusair interpolation
   ROPT   =    0.00000   0.00000   0.00000
 Ionic relaxation
   EDIFFG = -.1E-04   stopping-criterion for IOM
   NSW    =      0    number of steps for IOM
   NBLOCK =      1;   KBLOCK =      1    inner block; outer block 
   IBRION =     -1    ionic relax: 0-MD 1-quasi-New 2-CG
   NFREE  =      0    steps in history (QN), initial steepest desc. (CG)
   ISIF   =      2    stress and relaxation
   IWAVPR =     10    prediction:  0-non 1-charg 2-wave 3-comb
   ISYM   =      2    0-nonsym 1-usesym 2-fastsym
   LCORR  =      T    Harris-Foulkes like correction to forces

   POTIM  = 0.5000    time-step for ionic-motion
   TEIN   =    0.0    initial temperature
   TEBEG  =    0.0;   TEEND  =   0.0 temperature during run
   SMASS  =  -3.00    Nose mass-parameter (am)
   estimated Nose-frequenzy (Omega)   =  0.10E-29 period in steps =****** mass=  -0.252E-26a.u.
   SCALEE = 1.0000    scale energy and forces
   NPACO  =    256;   APACO  = 16.0  distance and # of slots for P.C.
   PSTRESS=    0.0 pullay stress

  Mass of Ions in am
   POMASS =  32.07 63.55 55.85
  Ionic Valenz
   ZVAL   =   6.00 17.00 14.00
  Atomic Wigner-Seitz radii
   RWIGS  =  -1.00 -1.00 -1.00
  virtual crystal weights 
   VCA    =   1.00  1.00  1.00
   NELECT =     688.0000    total number of electrons
   NUPDOWN=      -1.0000    fix difference up-down

 DOS related values:
   EMIN   =  10.00;   EMAX   =-10.00  energy-range for DOS
   EFERMI =   0.00
   ISMEAR =    -5;   SIGMA  =   0.03  broadening in eV -4-tet -1-fermi 0-gaus

 Electronic relaxation 2 (details)
   IALGO  =     38    algorithm
   LDIAG  =      T    sub-space diagonalisation (order eigenvalues)
   LSUBROT=      F    optimize rotation matrix (better conditioning)
   TURBO    =      0    0=normal 1=particle mesh
   IRESTART =      0    0=no restart 2=restart with 2 vectors
   NREBOOT  =      0    no. of reboots
   NMIN     =      0    reboot dimension
   EREF     =   0.00    reference energy to select bands
   IMIX   =      4    mixing-type and parameters
     AMIX     =   0.40;   BMIX     =  1.00
     AMIX_MAG =   1.60;   BMIX_MAG =  1.00
     AMIN     =   0.10
     WC   =   100.;   INIMIX=   1;  MIXPRE=   1;  MAXMIX= -45

 Intra band minimization:
   WEIMIN = 0.0000     energy-eigenvalue tresh-hold
   EBREAK =  0.49E-11  absolut break condition
   DEPER  =   0.30     relativ break condition  

   TIME   =   0.40     timestep for ELM

  volume/ion in A,a.u.               =      17.85       120.46
  Fermi-wavevector in a.u.,A,eV,Ry     =   1.382509  2.612563 26.005232  1.911331
  Thomas-Fermi vector in A             =   2.507193
 
 Write flags
   LWAVE        =      T    write WAVECAR
   LDOWNSAMPLE  =      F    k-point downsampling of WAVECAR
   LCHARG       =      T    write CHGCAR
   LVTOT        =      F    write LOCPOT, total local potential
   LVHAR        =      F    write LOCPOT, Hartree potential only
   LELF         =      F    write electronic localiz. function (ELF)
   LORBIT       =     11    0 simple, 1 ext, 2 COOP (PROOUT), +10 PAW based schemes


 Dipole corrections
   LMONO  =      F    monopole corrections only (constant potential shift)
   LDIPOL =      F    correct potential (dipole corrections)
   IDIPOL =      0    1-x, 2-y, 3-z, 4-all directions 
   EPSILON=  1.0000000 bulk dielectric constant

 LDA+U is selected, type is set to LDAUTYPE =  2
   angular momentum for each species LDAUL =     2    2    2
   U (eV)           for each species LDAUU =   0.0  0.1  4.7
   J (eV)           for each species LDAUJ =   0.0  0.0  0.0
 Exchange correlation treatment:
   GGA     =    PS    GGA type
   LEXCH   =    14    internal setting for exchange type
   VOSKOWN=      0    Vosko Wilk Nusair interpolation
   LHFCALC =     F    Hartree Fock is set to
   LHFONE  =     F    Hartree Fock one center treatment
   AEXX    =    0.0000 exact exchange contribution

 Linear response parameters
   LEPSILON=     F    determine dielectric tensor
   LRPA    =     F    only Hartree local field effects (RPA)
   LNABLA  =     F    use nabla operator in PAW spheres
   LVEL    =     F    velocity operator in full k-point grid
   LINTERFAST=   F  fast interpolation
   KINTER  =     0    interpolate to denser k-point grid
   CSHIFT  =0.1000    complex shift for real part using Kramers Kronig
   OMEGAMAX=  -1.0    maximum frequency
   DEG_THRESHOLD= 0.2000000E-02 threshold for treating states as degnerate
   RTIME   =   -0.100 relaxation time in fs
  (WPLASMAI=    0.000 imaginary part of plasma frequency in eV, 0.658/RTIME)
   DFIELD  = 0.0000000 0.0000000 0.0000000 field for delta impulse in time
 
 Orbital magnetization related:
   ORBITALMAG=     F  switch on orbital magnetization
   LCHIMAG   =     F  perturbation theory with respect to B field
   DQ        =  0.001000  dq finite difference perturbation B field
   LLRAUG    =     F  two centre corrections for induced B field

 PEAD related settings:
   LPEAD      =     T    switch on PEAD
   IPEAD      =     4    finite difference order for dpsi/dk
   LCALCPOL   =     T    calculate macroscopic polarization
   LCALCEPS   =     F    calculate dielectric tensor
   EFIELD_PEAD=    0.0000    0.0000    0.0000
   SKIP_EDOTP =     F
   LRPA       =     F
   SKIP_SCF   =     F


--------------------------------------------------------------------------------------------------------


 Static calculation
 charge density and potential will be updated during run
 spin polarized calculation
 Variant of blocked Davidson
 Davidson routine will perform the subspace rotation
 perform sub-space diagonalisation
    after iterative eigenvector-optimisation
 modified Broyden-mixing scheme, WC =      100.0
 initial mixing is a Kerker type mixing with AMIX =  0.4000 and BMIX =      1.0000
 Hartree-type preconditioning will be used
 using additional bands          168
 reciprocal scheme for non local part
 use partial core corrections
 calculate Harris-corrections to forces 
   (improved forces if not selfconsistent)
 use gradient corrections 
 use of overlap-Matrix (Vanderbilt PP)
 Fermi weights with tetrahedron method with Bloechl corrections


--------------------------------------------------------------------------------------------------------


  energy-cutoff  :      700.00
  volume of cell :     1142.38
      direct lattice vectors                 reciprocal lattice vectors
    10.483922000  0.733219000  0.000000000     0.095852992 -0.006703716  0.000000000
     0.733219000 10.483922000  0.000000000    -0.006703716  0.095852992  0.000000000
     0.000000000  0.000000000 10.444582801     0.000000000  0.000000000  0.095743413

  length of vectors
    10.509530465 10.509530465 10.444582801     0.096087127  0.096087127  0.095743413


 
 old parameters found on file WAVECAR:
  energy-cutoff  :      700.00
  volume of cell :     1142.37
      direct lattice vectors                 reciprocal lattice vectors
    10.483922000  0.733219000  0.000000000     0.095852992 -0.006703716  0.000000000
     0.733219000 10.483922000  0.000000000    -0.006703716  0.095852992  0.000000000
     0.000000000  0.000000000 10.444508427     0.000000000  0.000000000  0.095744094

  length of vectors

 
 k-points in units of 2pi/SCALE and weight: Automatic mesh                          
   0.00000000  0.00000000  0.00000000       0.016
   0.02396325 -0.00167593  0.00000000       0.062
   0.04792650 -0.00335186  0.00000000       0.031
   0.02228732  0.02228732  0.00000000       0.031
   0.04625057  0.02061139  0.00000000       0.062
  -0.02563918  0.02563918  0.00000000       0.031
   0.04457464  0.04457464  0.00000000       0.016
   0.00000000  0.00000000  0.02393585       0.031
   0.02396325 -0.00167593  0.02393585       0.125
   0.04792650 -0.00335186  0.02393585       0.062
   0.02228732  0.02228732  0.02393585       0.062
   0.04625057  0.02061139  0.02393585       0.125
  -0.02563918  0.02563918  0.02393585       0.062
   0.04457464  0.04457464  0.02393585       0.031
   0.00000000  0.00000000  0.04787171       0.016
   0.02396325 -0.00167593  0.04787171       0.062
   0.04792650 -0.00335186  0.04787171       0.031
   0.02228732  0.02228732  0.04787171       0.031
   0.04625057  0.02061139  0.04787171       0.062
  -0.02563918  0.02563918  0.04787171       0.031
   0.04457464  0.04457464  0.04787171       0.016
 
 k-points in reciprocal lattice and weights: Automatic mesh                          
   0.00000000  0.00000000  0.00000000       0.016
   0.25000000  0.00000000  0.00000000       0.062
   0.50000000  0.00000000  0.00000000       0.031
   0.25000000  0.25000000  0.00000000       0.031
   0.50000000  0.25000000  0.00000000       0.062
  -0.25000000  0.25000000  0.00000000       0.031
   0.50000000  0.50000000  0.00000000       0.016
   0.00000000  0.00000000  0.25000000       0.031
   0.25000000  0.00000000  0.25000000       0.125
   0.50000000  0.00000000  0.25000000       0.062
   0.25000000  0.25000000  0.25000000       0.062
   0.50000000  0.25000000  0.25000000       0.125
  -0.25000000  0.25000000  0.25000000       0.062
   0.50000000  0.50000000  0.25000000       0.031
   0.00000000  0.00000000  0.50000000       0.016
   0.25000000  0.00000000  0.50000000       0.062
   0.50000000  0.00000000  0.50000000       0.031
   0.25000000  0.25000000  0.50000000       0.031
   0.50000000  0.25000000  0.50000000       0.062
  -0.25000000  0.25000000  0.50000000       0.031
   0.50000000  0.50000000  0.50000000       0.016
 
 position of ions in fractional coordinates (direct lattice) 
   0.12601878  0.12579825  0.11740577
   0.62601878  0.12579825  0.11740577
   0.12601878  0.62579825  0.11740577
   0.62601878  0.62579825  0.11740577
   0.37398122  0.37420175  0.11740577
   0.87398122  0.37420175  0.11740577
   0.37398122  0.87420175  0.11740577
   0.87398122  0.87420175  0.11740577
   0.12420175  0.37398122  0.86740577
   0.62420175  0.37398122  0.86740577
   0.12420175  0.87398122  0.86740577
   0.62420175  0.87398122  0.86740577
   0.37579825  0.12601878  0.86740577
   0.87579825  0.12601878  0.86740577
   0.37579825  0.62601878  0.86740577
   0.87579825  0.62601878  0.86740577
   0.12398122  0.12420175  0.61740577
   0.62398122  0.12420175  0.61740577
   0.12398122  0.62420175  0.61740577
   0.62398122  0.62420175  0.61740577
   0.37601878  0.37579825  0.61740577
   0.87601878  0.37579825  0.61740577
   0.37601878  0.87579825  0.61740577
   0.87601878  0.87579825  0.61740577
   0.37420175  0.12398122  0.36740577
   0.87420175  0.12398122  0.36740577
   0.37420175  0.62398122  0.36740577
   0.87420175  0.62398122  0.36740577
   0.12579825  0.37601878  0.36740577
   0.62579825  0.37601878  0.36740577
   0.12579825  0.87601878  0.36740577
   0.62579825  0.87601878  0.36740577
   0.00000000  0.00000000  0.50655726
   0.50000000  0.00000000  0.50655726
   0.00000000  0.50000000  0.50655726
   0.50000000  0.50000000  0.50655726
   0.25000000  0.00000000  0.25655726
   0.75000000  0.00000000  0.25655726
   0.25000000  0.50000000  0.25655726
   0.75000000  0.50000000  0.25655726
   0.25000000  0.25000000  0.00655726
   0.75000000  0.25000000  0.00655726
   0.25000000  0.75000000  0.00655726
   0.75000000  0.75000000  0.00655726
   0.00000000  0.25000000  0.75655726
   0.50000000  0.25000000  0.75655726
   0.00000000  0.75000000  0.75655726
   0.50000000  0.75000000  0.75655726
   0.00000000  0.00000000  0.00863121
   0.50000000  0.00000000  0.00863121
   0.00000000  0.50000000  0.00863121
   0.50000000  0.50000000  0.00863121
   0.25000000  0.00000000  0.75863121
   0.75000000  0.00000000  0.75863121
   0.25000000  0.50000000  0.75863121
   0.75000000  0.50000000  0.75863121
   0.25000000  0.25000000  0.50863121
   0.75000000  0.25000000  0.50863121
   0.25000000  0.75000000  0.50863121
   0.75000000  0.75000000  0.50863121
   0.00000000  0.25000000  0.25863121
   0.50000000  0.25000000  0.25863121
   0.00000000  0.75000000  0.25863121
   0.50000000  0.75000000  0.25863121
 
 position of ions in cartesian coordinates  (Angst):
   1.41340868  1.41125840  1.22625424
   6.65536968  1.77786790  1.22625424
   1.78001818  6.65321940  1.22625424
   7.02197918  7.01982890  1.22625424
   4.19516182  4.19731210  1.22625424
   9.43712282  4.56392160  1.22625424
   4.56177132  9.43927310  1.22625424
   9.80373232  9.80588260  1.22625424
   1.57633160  4.01185707  9.05969134
   6.81829260  4.37846657  9.05969134
   1.94294110  9.25381807  9.05969134
   7.18490210  9.62042757  9.05969134
   4.03223890  1.59671343  9.05969134
   9.27419990  1.96332293  9.05969134
   4.39884840  6.83867443  9.05969134
   9.64080940  7.20528393  9.05969134
   1.39087657  1.39302685  6.44854564
   6.63283757  1.75963635  6.44854564
   1.75748607  6.63498785  6.44854564
   6.99944707  7.00159735  6.44854564
   4.21769393  4.21554365  6.44854564
   9.45965493  4.58215315  6.44854564
   4.58430343  9.45750465  6.44854564
   9.82626443  9.82411415  6.44854564
   4.01400735  1.57418132  3.83739994
   9.25596835  1.94079082  3.83739994
   4.38061685  6.81614232  3.83739994
   9.62257785  7.18275182  3.83739994
   1.59456315  4.03438918  3.83739994
   6.83652415  4.40099868  3.83739994
   1.96117265  9.27635018  3.83739994
   7.20313365  9.64295968  3.83739994
   0.00000000  0.00000000  5.29077928
   5.24196100  0.36660950  5.29077928
   0.36660950  5.24196100  5.29077928
   5.60857050  5.60857050  5.29077928
   2.62098050  0.18330475  2.67963358
   7.86294150  0.54991425  2.67963358
   2.98759000  5.42526575  2.67963358
   8.22955100  5.79187525  2.67963358
   2.80428525  2.80428525  0.06848788
   8.04624625  3.17089475  0.06848788
   3.17089475  8.04624625  0.06848788
   8.41285575  8.41285575  0.06848788
   0.18330475  2.62098050  7.90192498
   5.42526575  2.98759000  7.90192498
   0.54991425  7.86294150  7.90192498
   5.79187525  8.22955100  7.90192498
   0.00000000  0.00000000  0.09014935
   5.24196100  0.36660950  0.09014935
   0.36660950  5.24196100  0.09014935
   5.60857050  5.60857050  0.09014935
   2.62098050  0.18330475  7.92358645
   7.86294150  0.54991425  7.92358645
   2.98759000  5.42526575  7.92358645
   8.22955100  5.79187525  7.92358645
   2.80428525  2.80428525  5.31244075
   8.04624625  3.17089475  5.31244075
   3.17089475  8.04624625  5.31244075
   8.41285575  8.41285575  5.31244075
   0.18330475  2.62098050  2.70129505
   5.42526575  2.98759000  2.70129505
   0.54991425  7.86294150  2.70129505
   5.79187525  8.22955100  2.70129505
 


--------------------------------------------------------------------------------------------------------


 k-point  1 :   0.0000 0.0000 0.0000  plane waves:   47987
 k-point  2 :   0.2500 0.0000 0.0000  plane waves:   48065
 k-point  3 :   0.5000 0.0000 0.0000  plane waves:   48072
 k-point  4 :   0.2500 0.2500 0.0000  plane waves:   48046
 k-point  5 :   0.5000 0.2500 0.0000  plane waves:   48061
 k-point  6 :  -0.2500 0.2500 0.0000  plane waves:   48040
 k-point  7 :   0.5000 0.5000 0.0000  plane waves:   48068
 k-point  8 :   0.0000 0.0000 0.2500  plane waves:   48031
 k-point  9 :   0.2500 0.0000 0.2500  plane waves:   48047
 k-point 10 :   0.5000 0.0000 0.2500  plane waves:   48046
 k-point 11 :   0.2500 0.2500 0.2500  plane waves:   48046
 k-point 12 :   0.5000 0.2500 0.2500  plane waves:   48037
 k-point 13 :  -0.2500 0.2500 0.2500  plane waves:   48043
 k-point 14 :   0.5000 0.5000 0.2500  plane waves:   48068
 k-point 15 :   0.0000 0.0000 0.5000  plane waves:   48082
 k-point 16 :   0.2500 0.0000 0.5000  plane waves:   48030
 k-point 17 :   0.5000 0.0000 0.5000  plane waves:   48000
 k-point 18 :   0.2500 0.2500 0.5000  plane waves:   48032
 k-point 19 :   0.5000 0.2500 0.5000  plane waves:   47976
 k-point 20 :  -0.2500 0.2500 0.5000  plane waves:   48072
 k-point 21 :   0.5000 0.5000 0.5000  plane waves:   47948

 maximum and minimum number of plane-waves per node :     48082    47948

 maximum number of plane-waves:     48082
 maximum index in each direction: 
   IXMAX=   22   IYMAX=   22   IZMAX=   22
   IXMIN=  -23   IYMIN=  -23   IZMIN=  -23


 serial   3D FFT for wavefunctions
 parallel 3D FFT for charge:
    minimum data exchange during FFTs selected (reduces bandwidth)


 total amount of memory used by VASP MPI-rank0   658257. kBytes
=======================================================================

   base      :      30000. kBytes
   nonl-proj :     485900. kBytes
   fftplans  :       4588. kBytes
   grid      :      69719. kBytes
   one-center:       1990. kBytes
   wavefun   :      66060. kBytes
 
     INWAV:  cpu time   41.9643: real time   42.2631
 Broyden mixing: mesh for mixing (old mesh)
   NGX = 45   NGY = 45   NGZ = 45
  (NGX  =192   NGY  =192   NGZ  =180)
  gives a total of  91125 points

 initial charge density was supplied:
 number of electron     688.0000381 magnetization      -0.0000000
 keeping initial charge density in first step


--------------------------------------------------------------------------------------------------------


 Maximum index for augmentation-charges          890 (set IRDMAX)


--------------------------------------------------------------------------------------------------------


 First call to EWALD:  gamma=   0.170
 Maximum number of real-space cells 3x 3x 3
 Maximum number of reciprocal cells 3x 3x 3

    FEWALD:  cpu time    0.0026: real time    0.0026


--------------------------------------- Iteration      1(   1)  ---------------------------------------


    POTLOK:  cpu time    0.3327: real time    0.3752
    SETDIJ:  cpu time    0.0148: real time    0.0149
     EDDAV:  cpu time  469.5065: real time  472.9295
 BZINTS: Fermi energy:  5.304934;688.000000 electrons
         Band energy:***********;  BLOECHL correction:  0.000000
       DOS:  cpu time    0.0261: real time    0.0263
    CHARGE:  cpu time    2.9389: real time    2.9601
    MIXING:  cpu time    0.0022: real time    0.0023
    --------------------------------------------
      LOOP:  cpu time  472.8212: real time  476.3083

 eigenvalue-minimisations  : 63488
 total energy-change (2. order) :-0.3260273E+03  (-0.1584590E-05)
 number of electron     688.0000381 magnetization      -0.0000000
 augmentation part      282.2630829 magnetization      -0.0000000

 Broyden mixing:
  rms(total) = 0.60960E-03    rms(broyden)= 0.60957E-03
  rms(prec ) = 0.75092E-03
  weight for this iteration     100.00

 Free energy of the ion-electron system (eV)
  ---------------------------------------------------
  alpha Z        PSCENC =      2373.25513528
  Ewald energy   TEWEN  =    -62705.20316154
  -Hartree energ DENC   =    -42800.82322392
  -exchange      EXHF   =         0.00000000
  -V(xc)+E(xc)   XCENC  =      3286.35621515
  PAW double counting   =    112094.71152253  -115785.83848152
  entropy T*S    EENTRO =         0.00000000
  eigenvalues    EBANDS =    -10808.55045246
  atomic energy  EATOM  =    114020.06510763
  Solvation  Ediel_sol  =         0.00000000
  ---------------------------------------------------
  free energy    TOTEN  =      -326.02733885 eV

  energy without entropy =     -326.02733885  energy(sigma->0) =     -326.02733885


--------------------------------------------------------------------------------------------------------




--------------------------------------- Iteration      1(   2)  ---------------------------------------


    POTLOK:  cpu time    0.1444: real time    0.1478
    SETDIJ:  cpu time    0.0130: real time    0.0131
     EDDAV:  cpu time  414.4906: real time  417.2911
 BZINTS: Fermi energy:  5.226713;688.000000 electrons
         Band energy:***********;  BLOECHL correction:  0.000000
       DOS:  cpu time    0.0241: real time    0.0243
    CHARGE:  cpu time    3.1113: real time    3.1362
    MIXING:  cpu time    0.0018: real time    0.0025
    --------------------------------------------
      LOOP:  cpu time  417.7853: real time  420.6149

 eigenvalue-minimisations  : 59648
 total energy-change (2. order) : 0.9233045E-06  (-0.2132338E-06)
 number of electron     688.0000381 magnetization      -0.0000000
 augmentation part      282.2633736 magnetization      -0.0000000

 Broyden mixing:
  rms(total) = 0.49903E-03    rms(broyden)= 0.49902E-03
  rms(prec ) = 0.59419E-03
  weight for this iteration     100.00

 eigenvalues of (default mixing * dielectric matrix)
  average eigenvalue GAMMA=   0.4720
  0.4720

 Free energy of the ion-electron system (eV)
  ---------------------------------------------------
  alpha Z        PSCENC =      2373.25513528
  Ewald energy   TEWEN  =    -62705.20316154
  -Hartree energ DENC   =    -42800.82800962
  -exchange      EXHF   =         0.00000000
  -V(xc)+E(xc)   XCENC  =      3286.35651117
  PAW double counting   =    112094.76134092  -115785.88812747
  entropy T*S    EENTRO =         0.00000000
  eigenvalues    EBANDS =    -10808.54613430
  atomic energy  EATOM  =    114020.06510763
  Solvation  Ediel_sol  =         0.00000000
  ---------------------------------------------------
  free energy    TOTEN  =      -326.02733793 eV

  energy without entropy =     -326.02733793  energy(sigma->0) =     -326.02733793


--------------------------------------------------------------------------------------------------------




--------------------------------------- Iteration      1(   3)  ---------------------------------------


    POTLOK:  cpu time    0.1575: real time    0.1615
    SETDIJ:  cpu time    0.0136: real time    0.0137
     EDDAV:  cpu time  527.0218: real time  530.4450
 BZINTS: Fermi energy:  5.101581;688.000000 electrons
         Band energy:***********;  BLOECHL correction:  0.000000
       DOS:  cpu time    0.0208: real time    0.0209
    CHARGE:  cpu time    2.9377: real time    2.9610
    MIXING:  cpu time    0.0012: real time    0.0012
    --------------------------------------------
      LOOP:  cpu time  530.1526: real time  533.6032

 eigenvalue-minimisations  : 68864
 total energy-change (2. order) : 0.2878660E-06  (-0.2345963E-06)
 number of electron     688.0000381 magnetization      -0.0000000
 augmentation part      282.2631970 magnetization      -0.0000000

 Broyden mixing:
  rms(total) = 0.46550E-03    rms(broyden)= 0.46549E-03
  rms(prec ) = 0.53967E-03
  weight for this iteration     100.00

 eigenvalues of (default mixing * dielectric matrix)
  average eigenvalue GAMMA=   0.9761
  1.6341  0.3181

 Free energy of the ion-electron system (eV)
  ---------------------------------------------------
  alpha Z        PSCENC =      2373.25513528
  Ewald energy   TEWEN  =    -62705.20316154
  -Hartree energ DENC   =    -42800.82024085
  -exchange      EXHF   =         0.00000000
  -V(xc)+E(xc)   XCENC  =      3286.35554955
  PAW double counting   =    112094.78200533  -115785.90989434
  entropy T*S    EENTRO =         0.00000000
  eigenvalues    EBANDS =    -10808.55183871
  atomic energy  EATOM  =    114020.06510763
  Solvation  Ediel_sol  =         0.00000000
  ---------------------------------------------------
  free energy    TOTEN  =      -326.02733764 eV

  energy without entropy =     -326.02733764  energy(sigma->0) =     -326.02733764


--------------------------------------------------------------------------------------------------------




--------------------------------------- Iteration      1(   4)  ---------------------------------------


    POTLOK:  cpu time    0.1456: real time    0.1465
    SETDIJ:  cpu time    0.0129: real time    0.0130
     EDDAV:  cpu time  486.7781: real time  489.9664
 BZINTS: Fermi energy:  5.274392;688.000000 electrons
         Band energy:***********;  BLOECHL correction:  0.000000
       DOS:  cpu time    0.0254: real time    0.0255
    CHARGE:  cpu time    2.9465: real time    2.9709
    MIXING:  cpu time    0.0013: real time    0.0013
    --------------------------------------------
      LOOP:  cpu time  489.9098: real time  493.1236

 eigenvalue-minimisations  : 64512
 total energy-change (2. order) : 0.2187298E-06  (-0.8624406E-07)
 number of electron     688.0000381 magnetization      -0.0000000
 augmentation part      282.2630915 magnetization      -0.0000000

 Broyden mixing:
  rms(total) = 0.11251E-03    rms(broyden)= 0.11250E-03
  rms(prec ) = 0.12528E-03
  weight for this iteration     100.00

 eigenvalues of (default mixing * dielectric matrix)
  average eigenvalue GAMMA=   0.9679
  1.8374  0.7195  0.3468

 Free energy of the ion-electron system (eV)
  ---------------------------------------------------
  alpha Z        PSCENC =      2373.25513528
  Ewald energy   TEWEN  =    -62705.20316154
  -Hartree energ DENC   =    -42800.83616118
  -exchange      EXHF   =         0.00000000
  -V(xc)+E(xc)   XCENC  =      3286.35611832
  PAW double counting   =    112094.83439583  -115785.96322692
  entropy T*S    EENTRO =         0.00000000
  eigenvalues    EBANDS =    -10808.53554484
  atomic energy  EATOM  =    114020.06510763
  Solvation  Ediel_sol  =         0.00000000
  ---------------------------------------------------
  free energy    TOTEN  =      -326.02733742 eV

  energy without entropy =     -326.02733742  energy(sigma->0) =     -326.02733742


--------------------------------------------------------------------------------------------------------




--------------------------------------- Iteration      1(   5)  ---------------------------------------


    POTLOK:  cpu time    0.1432: real time    0.1467
    SETDIJ:  cpu time    0.0129: real time    0.0130
     EDDAV:  cpu time  490.2384: real time  493.4596
 BZINTS: Fermi energy:  5.265964;688.000000 electrons
         Band energy:***********;  BLOECHL correction:  0.000000
       DOS:  cpu time    0.0240: real time    0.0241
    CHARGE:  cpu time    2.9406: real time    2.9650
    MIXING:  cpu time    0.0017: real time    0.0025
    --------------------------------------------
      LOOP:  cpu time  493.3608: real time  496.6108

 eigenvalue-minimisations  : 64512
 total energy-change (2. order) :-0.3131572E-07  (-0.1479362E-07)
 number of electron     688.0000381 magnetization      -0.0000000
 augmentation part      282.2632526 magnetization      -0.0000000

 Broyden mixing:
  rms(total) = 0.55145E-04    rms(broyden)= 0.55140E-04
  rms(prec ) = 0.59362E-04
  weight for this iteration     100.00

 eigenvalues of (default mixing * dielectric matrix)
  average eigenvalue GAMMA=   1.0149
  1.7844  0.3481  1.1704  0.7568

 Free energy of the ion-electron system (eV)
  ---------------------------------------------------
  alpha Z        PSCENC =      2373.25513528
  Ewald energy   TEWEN  =    -62705.20316154
  -Hartree energ DENC   =    -42800.82724007
  -exchange      EXHF   =         0.00000000
  -V(xc)+E(xc)   XCENC  =      3286.35598446
  PAW double counting   =    112094.80442683  -115785.93164954
  entropy T*S    EENTRO =         0.00000000
  eigenvalues    EBANDS =    -10808.54594050
  atomic energy  EATOM  =    114020.06510763
  Solvation  Ediel_sol  =         0.00000000
  ---------------------------------------------------
  free energy    TOTEN  =      -326.02733745 eV

  energy without entropy =     -326.02733745  energy(sigma->0) =     -326.02733745


--------------------------------------------------------------------------------------------------------




--------------------------------------- Iteration      1(   6)  ---------------------------------------


    POTLOK:  cpu time    0.1473: real time    0.1482
    SETDIJ:  cpu time    0.0131: real time    0.0131
     EDDAV:  cpu time  228.3281: real time  229.9949
 BZINTS: Fermi energy:  5.263721;688.000000 electrons
         Band energy:***********;  BLOECHL correction:  0.000000
       DOS:  cpu time    0.0242: real time    0.0243
    --------------------------------------------
      LOOP:  cpu time  228.5127: real time  230.1805

 eigenvalue-minimisations  : 37376
 total energy-change (2. order) : 0.3856258E-08  (-0.7325844E-09)
 number of electron     688.0000381 magnetization      -0.0000000
 augmentation part      282.2632526 magnetization      -0.0000000

 Free energy of the ion-electron system (eV)
  ---------------------------------------------------
  alpha Z        PSCENC =      2373.25513528
  Ewald energy   TEWEN  =    -62705.20316154
  -Hartree energ DENC   =    -42800.83012839
  -exchange      EXHF   =         0.00000000
  -V(xc)+E(xc)   XCENC  =      3286.35606365
  PAW double counting   =    112094.78459799  -115785.91247733
  entropy T*S    EENTRO =         0.00000000
  eigenvalues    EBANDS =    -10808.54247474
  atomic energy  EATOM  =    114020.06510763
  Solvation  Ediel_sol  =         0.00000000
  ---------------------------------------------------
  free energy    TOTEN  =      -326.02733745 eV

  energy without entropy =     -326.02733745  energy(sigma->0) =     -326.02733745


--------------------------------------------------------------------------------------------------------




 average (electrostatic) potential at core
  the test charge radii are     0.9698  0.8297  0.9500
  (the norm of the test charge is              1.0000)
       1 -86.5295       2 -86.5295       3 -86.5295       4 -86.5295       5 -86.5295
       6 -86.5295       7 -86.5295       8 -86.5295       9 -86.5295      10 -86.5295
      11 -86.5295      12 -86.5295      13 -86.5295      14 -86.5295      15 -86.5295
      16 -86.5295      17 -86.5295      18 -86.5295      19 -86.5295      20 -86.5295
      21 -86.5295      22 -86.5295      23 -86.5295      24 -86.5295      25 -86.5295
      26 -86.5295      27 -86.5295      28 -86.5295      29 -86.5295      30 -86.5295
      31 -86.5295      32 -86.5295      33 -80.6277      34 -80.6277      35 -80.6277
      36 -80.6277      37 -80.6277      38 -80.6277      39 -80.6277      40 -80.6277
      41 -80.6277      42 -80.6277      43 -80.6277      44 -80.6277      45 -80.6277
      46 -80.6277      47 -80.6277      48 -80.6277      49 -80.1087      50 -80.1087
      51 -80.1087      52 -80.1087      53 -80.1087      54 -80.1087      55 -80.1087
      56 -80.1087      57 -80.1087      58 -80.1087      59 -80.1087      60 -80.1087
      61 -80.1087      62 -80.1087      63 -80.1087      64 -80.1087
 
 
 
 E-fermi :   5.2637     XC(G=0): -10.5175     alpha+bet :-10.6229


 spin component 1

 k-point     1 :       0.0000    0.0000    0.0000
  band No.  band energies     occupation 
      1     -64.2427      1.00000
      2     -64.2427      1.00000
      3     -64.2427      1.00000
      4     -64.2427      1.00000
      5     -64.2427      1.00000
      6     -64.2427      1.00000
      7     -64.2427      1.00000
      8     -64.2427      1.00000
      9     -64.2242      1.00000
     10     -64.2241      1.00000
     11     -64.2241      1.00000
     12     -64.2241      1.00000
     13     -64.2241      1.00000
     14     -64.2241      1.00000
     15     -64.2241      1.00000
     16     -64.2241      1.00000
     17     -64.2123      1.00000
     18     -64.2123      1.00000
     19     -64.2123      1.00000
     20     -64.2123      1.00000
     21     -64.2123      1.00000
     22     -64.2123      1.00000
     23     -64.2123      1.00000
     24     -64.2123      1.00000
     25     -64.2055      1.00000
     26     -64.2055      1.00000
     27     -64.2055      1.00000
     28     -64.2055      1.00000
     29     -64.2055      1.00000
     30     -64.2055      1.00000
     31     -64.2055      1.00000
     32     -64.2055      1.00000
     33     -64.1840      1.00000
     34     -64.1840      1.00000
     35     -64.1840      1.00000
     36     -64.1840      1.00000
     37     -64.1840      1.00000
     38     -64.1840      1.00000
     39     -64.1840      1.00000
     40     -64.1840      1.00000
     41     -64.1592      1.00000
     42     -64.1592      1.00000
     43     -64.1592      1.00000
     44     -64.1592      1.00000
     45     -64.1592      1.00000
     46     -64.1592      1.00000
     47     -64.1592      1.00000
     48     -64.1592      1.00000
     49     -51.8123      1.00000
     50     -51.8123      1.00000
     51     -51.8123      1.00000
     52     -51.8123      1.00000
     53     -51.8123      1.00000
     54     -51.8123      1.00000
     55     -51.8123      1.00000
     56     -51.8123      1.00000
     57     -51.7043      1.00000
     58     -51.7043      1.00000
     59     -51.7043      1.00000
     60     -51.7043      1.00000
     61     -51.7043      1.00000
     62     -51.7043      1.00000
     63     -51.7043      1.00000
     64     -51.7043      1.00000
     65     -51.6936      1.00000
     66     -51.6936      1.00000
     67     -51.6936      1.00000
     68     -51.6936      1.00000
     69     -51.6936      1.00000
     70     -51.6936      1.00000
     71     -51.6936      1.00000
     72     -51.6936      1.00000
     73     -47.6388      1.00000
     74     -47.6388      1.00000
     75     -47.6388      1.00000
     76     -47.6388      1.00000
     77     -47.6388      1.00000
     78     -47.6388      1.00000
     79     -47.6388      1.00000
     80     -47.6388      1.00000
     81     -47.6008      1.00000
     82     -47.6008      1.00000
     83     -47.6008      1.00000
     84     -47.6008      1.00000
     85     -47.6008      1.00000
     86     -47.6008      1.00000
     87     -47.6008      1.00000
     88     -47.6008      1.00000
     89     -47.5967      1.00000
     90     -47.5967      1.00000
     91     -47.5967      1.00000
     92     -47.5967      1.00000
     93     -47.5967      1.00000
     94     -47.5967      1.00000
     95     -47.5967      1.00000
     96     -47.5966      1.00000
     97      -9.0513      1.00000
     98      -8.4561      1.00000
     99      -8.4104      1.00000
    100      -8.4031      1.00000
    101      -8.4031      1.00000
    102      -8.4024      1.00000
    103      -8.4024      1.00000
    104      -8.1979      1.00000
    105      -8.1535      1.00000
    106      -8.1533      1.00000
    107      -8.1156      1.00000
    108      -8.0551      1.00000
    109      -8.0551      1.00000
    110      -8.0551      1.00000
    111      -8.0551      1.00000
    112      -8.0031      1.00000
    113      -8.0031      1.00000
    114      -8.0030      1.00000
    115      -8.0030      1.00000
    116      -7.9033      1.00000
    117      -7.8832      1.00000
    118      -7.8473      1.00000
    119      -7.8191      1.00000
    120      -7.7035      1.00000
    121      -7.6559      1.00000
    122      -7.6559      1.00000
    123      -7.6546      1.00000
    124      -7.6546      1.00000
    125      -7.6445      1.00000
    126      -7.6407      1.00000
    127      -7.5827      1.00000
    128      -7.5762      1.00000
    129      -2.0052      1.00000
    130      -1.9284      1.00000
    131      -1.9284      1.00000
    132      -1.9237      1.00000
    133      -1.9089      1.00000
    134      -1.9089      1.00000
    135      -1.8843      1.00000
    136      -1.8584      1.00000
    137      -1.8246      1.00000
    138      -1.8079      1.00000
    139      -1.7995      1.00000
    140      -1.7995      1.00000
    141      -1.7960      1.00000
    142      -1.7960      1.00000
    143      -1.7898      1.00000
    144      -1.7757      1.00000
    145      -1.7639      1.00000
    146      -1.7604      1.00000
    147      -1.7334      1.00000
    148      -1.7316      1.00000
    149      -1.7287      1.00000
    150      -1.7261      1.00000
    151      -1.7261      1.00000
    152      -1.7237      1.00000
    153      -1.7237      1.00000
    154      -1.6812      1.00000
    155      -1.6812      1.00000
    156      -1.6648      1.00000
    157      -1.6544      1.00000
    158      -1.6544      1.00000
    159      -1.6300      1.00000
    160      -1.6243      1.00000
    161      -1.6243      1.00000
    162      -1.6214      1.00000
    163      -1.6214      1.00000
    164      -1.5954      1.00000
    165      -1.5927      1.00000
    166      -1.5541      1.00000
    167      -1.5114      1.00000
    168      -1.4807      1.00000
    169      -1.0580      1.00000
    170      -0.9095      1.00000
    171      -0.7312      1.00000
    172      -0.6665      1.00000
    173      -0.6288      1.00000
    174      -0.4855      1.00000
    175      -0.1453      1.00000
    176      -0.1453      1.00000
    177      -0.1394      1.00000
    178      -0.1394      1.00000
    179      -0.1262      1.00000
    180      -0.1102      1.00000
    181      -0.0383      1.00000
    182       0.0392      1.00000
    183       0.0392      1.00000
    184       0.0577      1.00000
    185       0.0577      1.00000
    186       0.0694      1.00000
    187       0.0959      1.00000
    188       0.1752      1.00000
    189       0.1752      1.00000
    190       0.1772      1.00000
    191       0.1780      1.00000
    192       0.1780      1.00000
    193       0.2664      1.00000
    194       0.3608      1.00000
    195       0.3845      1.00000
    196       0.3845      1.00000
    197       0.4010      1.00000
    198       0.4010      1.00000
    199       0.4800      1.00000
    200       0.7168      1.00000
    201       0.7792      1.00000
    202       0.8391      1.00000
    203       0.8887      1.00000
    204       0.8964      1.00000
    205       0.8964      1.00000
    206       0.9090      1.00000
    207       0.9090      1.00000
    208       0.9534      1.00000
    209       0.9534      1.00000
    210       0.9750      1.00000
    211       0.9750      1.00000
    212       0.9803      1.00000
    213       1.0212      1.00000
    214       1.1191      1.00000
    215       1.1191      1.00000
    216       1.1206      1.00000
    217       1.1206      1.00000
    218       1.1682      1.00000
    219       1.2349      1.00000
    220       1.2553      1.00000
    221       1.2871      1.00000
    222       1.2871      1.00000
    223       1.2897      1.00000
    224       1.2897      1.00000
    225       1.3004      1.00000
    226       1.3128      1.00000
    227       1.3332      1.00000
    228       1.3411      1.00000
    229       1.3458      1.00000
    230       1.3480      1.00000
    231       1.3939      1.00000
    232       1.3994      1.00000
    233       1.3994      1.00000
    234       1.4142      1.00000
    235       1.4142      1.00000
    236       1.4640      1.00000
    237       1.6197      1.00000
    238       1.6328      1.00000
    239       1.7311      1.00000
    240       1.7331      1.00000
    241       1.7791      1.00000
    242       1.7892      1.00000
    243       1.8430      1.00000
    244       1.8750      1.00000
    245       1.8750      1.00000
    246       1.8948      1.00000
    247       1.8948      1.00000
    248       1.9080      1.00000
    249       1.9646      1.00000
    250       1.9646      1.00000
    251       1.9816      1.00000
    252       2.0041      1.00000
    253       2.0041      1.00000
    254       2.0236      1.00000
    255       2.2137      1.00000
    256       2.2338      1.00000
    257       2.2338      1.00000
    258       2.2373      1.00000
    259       2.2941      1.00000
    260       2.3390      1.00000
    261       2.3390      1.00000
    262       2.3634      1.00000
    263       2.5822      1.00000
    264       2.6846      1.00000
    265       2.7112      1.00000
    266       2.7985      1.00000
    267       2.7985      1.00000
    268       2.8198      1.00000
    269       2.8371      1.00000
    270       2.8377      1.00000
    271       2.8377      1.00000
    272       2.8504      1.00000
    273       2.8504      1.00000
    274       2.8577      1.00000
    275       2.8577      1.00000
    276       2.8668      1.00000
    277       2.8681      1.00000
    278       2.9013      1.00000
    279       2.9398      1.00000
    280       2.9411      1.00000
    281       2.9997      1.00000
    282       3.0212      1.00000
    283       3.0212      1.00000
    284       3.0230      1.00000
    285       3.0248      1.00000
    286       3.0248      1.00000
    287       3.0662      1.00000
    288       3.0810      1.00000
    289       3.1120      1.00000
    290       3.1838      1.00000
    291       3.2095      1.00000
    292       3.2095      1.00000
    293       3.2278      1.00000
    294       3.2596      1.00000
    295       3.2688      1.00000
    296       3.2688      1.00000
    297       3.3579      1.00000
    298       3.3955      1.00000
    299       3.3955      1.00000
    300       3.3980      1.00000
    301       3.4057      1.00000
    302       3.5486      1.00000
    303       3.5486      1.00000
    304       3.5546      1.00000
    305       3.5671      1.00000
    306       3.6416      1.00000
    307       3.6416      1.00000
    308       3.6524      1.00000
    309       3.6524      1.00000
    310       3.6548      1.00000
    311       3.7549      1.00000
    312       3.7549      1.00000
    313       3.7739      1.00000
    314       3.7739      1.00000
    315       3.7794      1.00000
    316       3.8460      1.00000
    317       3.9126      1.00000
    318       3.9701      1.00000
    319       4.0693      1.00000
    320       4.0893      1.00000
    321       4.1041      1.00000
    322       4.1041      1.00000
    323       4.1050      1.00000
    324       4.1050      1.00000
    325       4.1704      1.00000
    326       4.1782      1.00000
    327       4.1782      1.00000
    328       4.2064      1.00000
    329       4.2096      1.00000
    330       4.2780      1.00000
    331       4.2780      1.00000
    332       4.3098      1.00000
    333       4.3489      1.00000
    334       4.3983      1.00000
    335       4.4567      1.00000
    336       4.6528      1.00000
    337       4.6935      1.00000
    338       4.6935      1.00000
    339       4.7447      1.00000
    340       4.7458      1.00000
    341       4.7458      1.00000
    342       4.7998      1.00000
    343       4.9498      1.00000
    344       5.0672      1.00000
    345       5.7115      0.00000
    346       5.7115      0.00000
    347       5.7757      0.00000
    348       5.7757      0.00000
    349       5.8421      0.00000
    350       5.8858      0.00000
    351       5.9251      0.00000
    352       5.9791      0.00000
    353       6.0246      0.00000
    354       6.0246      0.00000
    355       6.0460      0.00000
    356       6.0554      0.00000
    357       6.1258      0.00000
    358       6.1258      0.00000
    359       6.1325      0.00000
    360       6.1675      0.00000
    361       6.1675      0.00000
    362       6.1993      0.00000
    363       6.2161      0.00000
    364       6.2161      0.00000
    365       6.2545      0.00000
    366       6.2595      0.00000
    367       6.2905      0.00000
    368       6.2905      0.00000
    369       6.2981      0.00000
    370       6.2981      0.00000
    371       6.3194      0.00000
    372       6.3543      0.00000
    373       6.3778      0.00000
    374       6.4140      0.00000
    375       6.4584      0.00000
    376       6.5055      0.00000
    377       6.5363      0.00000
    378       6.5402      0.00000
    379       6.6451      0.00000
    380       6.6451      0.00000
    381       6.6574      0.00000
    382       6.6574      0.00000
    383       6.6598      0.00000
    384       6.8878      0.00000
    385       7.5305      0.00000
    386       8.2897      0.00000
    387       8.6421      0.00000
    388       8.8027      0.00000
    389       8.8221      0.00000
    390       8.9005      0.00000
    391       8.9258      0.00000
    392       9.2541      0.00000
    393       9.4366      0.00000
    394       9.4366      0.00000
    395       9.4375      0.00000
    396       9.4375      0.00000
    397       9.6715      0.00000
    398       9.7871      0.00000
    399      10.0212      0.00000
    400      10.1366      0.00000
    401      10.2313      0.00000
    402      10.4765      0.00000
    403      10.4765      0.00000
    404      10.4871      0.00000
    405      10.4871      0.00000
    406      10.5122      0.00000
    407      10.6914      0.00000
    408      10.6914      0.00000
    409      10.6965      0.00000
    410      10.6965      0.00000
    411      10.7289      0.00000
    412      10.7498      0.00000
    413      10.7498      0.00000
    414      10.7613      0.00000
    415      10.7613      0.00000
    416      10.8810      0.00000
    417      10.8909      0.00000
    418      10.8909      0.00000
    419      10.8928      0.00000
    420      10.9342      0.00000
    421      10.9342      0.00000
    422      11.0291      0.00000
    423      11.0411      0.00000
    424      11.3528      0.00000
    425      11.3961      0.00000
    426      11.3961      0.00000
    427      11.4076      0.00000
    428      11.4076      0.00000
    429      11.4551      0.00000
    430      11.5792      0.00000
    431      11.6432      0.00000
    432      11.6574      0.00000
    433      11.6574      0.00000
    434      11.6729      0.00000
    435      11.6729      0.00000
    436      11.6775      0.00000
    437      11.7266      0.00000
    438      11.9174      0.00000
    439      11.9680      0.00000
    440      11.9884      0.00000
    441      12.0367      0.00000
    442      12.0711      0.00000
    443      12.1462      0.00000
    444      12.1949      0.00000
    445      12.2425      0.00000
    446      12.2547      0.00000
    447      12.3486      0.00000
[...]
   -.414E+02 0.127E+01 0.426E+02   0.423E+02 -.122E+01 -.430E+02   -.814E+00 -.430E-01 0.413E+00   -.611E-04 0.131E-04 0.149E-04
   -.414E+02 0.127E+01 0.426E+02   0.423E+02 -.122E+01 -.430E+02   -.814E+00 -.430E-01 0.413E+00   -.611E-04 0.131E-04 0.149E-04
   -.414E+02 0.127E+01 0.426E+02   0.423E+02 -.122E+01 -.430E+02   -.814E+00 -.430E-01 0.413E+00   -.611E-04 0.131E-04 0.149E-04
   -.414E+02 0.127E+01 0.426E+02   0.423E+02 -.122E+01 -.430E+02   -.814E+00 -.430E-01 0.413E+00   -.611E-04 0.131E-04 0.149E-04
   0.414E+02 -.127E+01 0.426E+02   -.423E+02 0.122E+01 -.430E+02   0.814E+00 0.430E-01 0.413E+00   0.611E-04 -.131E-04 0.149E-04
   0.414E+02 -.127E+01 0.426E+02   -.423E+02 0.122E+01 -.430E+02   0.814E+00 0.430E-01 0.413E+00   0.611E-04 -.131E-04 0.149E-04
   0.414E+02 -.127E+01 0.426E+02   -.423E+02 0.122E+01 -.430E+02   0.814E+00 0.430E-01 0.413E+00   0.611E-04 -.131E-04 0.149E-04
   0.414E+02 -.127E+01 0.426E+02   -.423E+02 0.122E+01 -.430E+02   0.814E+00 0.430E-01 0.413E+00   0.611E-04 -.131E-04 0.149E-04
   0.127E+01 -.414E+02 0.426E+02   -.122E+01 0.423E+02 -.430E+02   -.430E-01 -.814E+00 0.413E+00   0.131E-04 -.611E-04 0.149E-04
   0.127E+01 -.414E+02 0.426E+02   -.122E+01 0.423E+02 -.430E+02   -.430E-01 -.814E+00 0.413E+00   0.131E-04 -.611E-04 0.149E-04
   0.127E+01 -.414E+02 0.426E+02   -.122E+01 0.423E+02 -.430E+02   -.430E-01 -.814E+00 0.413E+00   0.131E-04 -.611E-04 0.149E-04
   0.127E+01 -.414E+02 0.426E+02   -.122E+01 0.423E+02 -.430E+02   -.430E-01 -.814E+00 0.413E+00   0.131E-04 -.611E-04 0.149E-04
   -.127E+01 0.414E+02 0.426E+02   0.122E+01 -.423E+02 -.430E+02   0.430E-01 0.814E+00 0.413E+00   -.131E-04 0.611E-04 0.149E-04
   -.127E+01 0.414E+02 0.426E+02   0.122E+01 -.423E+02 -.430E+02   0.430E-01 0.814E+00 0.413E+00   -.131E-04 0.611E-04 0.149E-04
   -.127E+01 0.414E+02 0.426E+02   0.122E+01 -.423E+02 -.430E+02   0.430E-01 0.814E+00 0.413E+00   -.131E-04 0.611E-04 0.149E-04
   -.127E+01 0.414E+02 0.426E+02   0.122E+01 -.423E+02 -.430E+02   0.430E-01 0.814E+00 0.413E+00   -.131E-04 0.611E-04 0.149E-04
   -.215E-06 -.108E-06 -.500E+02   0.355E-13 -.291E-12 0.480E+02   0.232E-18 0.190E-18 0.200E+01   0.782E-11 0.365E-11 0.291E-03
   -.215E-06 -.108E-06 -.500E+02   0.639E-13 -.284E-12 0.480E+02   0.237E-19 0.000E+00 0.200E+01   -.125E-10 0.473E-11 0.291E-03
   -.215E-06 -.108E-06 -.500E+02   0.639E-13 -.249E-12 0.480E+02   -.173E-18 0.325E-18 0.200E+01   -.241E-12 -.511E-11 0.291E-03
   -.215E-06 -.108E-06 -.500E+02   0.924E-13 -.199E-12 0.480E+02   0.999E-19 0.000E+00 0.200E+01   -.398E-11 -.112E-10 0.291E-03
   -.108E-06 -.215E-06 -.500E+02   -.284E-13 -.114E-12 0.480E+02   -.296E-20 -.813E-19 0.200E+01   -.801E-12 -.261E-12 0.291E-03
   -.108E-06 -.215E-06 -.500E+02   0.000E+00 -.156E-12 0.480E+02   -.714E-19 -.102E-19 0.200E+01   0.981E-12 -.226E-11 0.291E-03
   -.108E-06 -.215E-06 -.500E+02   -.426E-13 -.185E-12 0.480E+02   -.390E-19 0.678E-19 0.200E+01   -.905E-12 -.339E-11 0.291E-03
   -.108E-06 -.215E-06 -.500E+02   -.284E-13 -.199E-12 0.480E+02   0.272E-18 0.678E-20 0.200E+01   0.519E-11 -.281E-11 0.291E-03
   -.215E-06 -.108E-06 -.500E+02   0.711E-14 -.213E-12 0.480E+02   0.407E-19 -.542E-19 0.200E+01   -.817E-11 0.811E-11 0.291E-03
   -.215E-06 -.108E-06 -.500E+02   -.213E-13 -.249E-12 0.480E+02   -.102E-19 -.190E-18 0.200E+01   0.360E-11 -.167E-11 0.291E-03
   -.215E-06 -.108E-06 -.500E+02   0.284E-13 -.224E-12 0.480E+02   -.114E-18 -.136E-18 0.200E+01   -.358E-11 -.659E-11 0.291E-03
   -.215E-06 -.108E-06 -.500E+02   0.284E-13 -.188E-12 0.480E+02   0.203E-18 -.813E-19 0.200E+01   0.578E-12 -.252E-11 0.291E-03
   -.108E-06 -.215E-06 -.500E+02   -.105E-12 -.126E-12 0.480E+02   -.961E-19 0.108E-18 0.200E+01   0.712E-12 -.292E-11 0.291E-03
   -.108E-06 -.215E-06 -.500E+02   -.461E-13 -.168E-12 0.480E+02   -.612E-19 0.712E-19 0.200E+01   0.224E-12 -.211E-10 0.291E-03
   -.108E-06 -.215E-06 -.500E+02   -.558E-13 -.137E-12 0.480E+02   0.663E-19 -.915E-19 0.200E+01   0.324E-11 0.487E-11 0.291E-03
   -.108E-06 -.215E-06 -.500E+02   -.818E-13 -.209E-12 0.480E+02   0.173E-18 0.983E-19 0.200E+01   -.411E-11 0.682E-11 0.291E-03
   0.604E-07 -.157E-07 -.403E+02   -.728E-13 0.121E-12 0.379E+02   0.603E-18 0.000E+00 0.234E+01   -.404E-11 -.360E-11 0.685E-04
   0.604E-07 -.157E-07 -.403E+02   -.879E-13 0.156E-12 0.379E+02   0.224E-18 -.542E-18 0.234E+01   0.631E-11 -.489E-11 0.685E-04
   0.604E-07 -.157E-07 -.403E+02   -.977E-13 0.107E-12 0.379E+02   0.847E-18 0.108E-18 0.234E+01   0.144E-11 0.199E-11 0.685E-04
   0.604E-07 -.158E-07 -.403E+02   -.560E-13 0.114E-12 0.379E+02   0.691E-18 -.141E-17 0.234E+01   0.244E-11 0.871E-11 0.685E-04
   -.157E-07 0.604E-07 -.403E+02   0.426E-13 0.853E-13 0.379E+02   0.213E-17 -.651E-18 0.234E+01   -.439E-12 -.553E-11 0.685E-04
   -.157E-07 0.604E-07 -.403E+02   0.675E-13 0.568E-13 0.379E+02   0.793E-18 -.108E-18 0.234E+01   -.697E-12 -.340E-11 0.685E-04
   -.157E-07 0.604E-07 -.403E+02   0.533E-13 0.817E-13 0.379E+02   -.806E-18 0.108E-18 0.234E+01   -.475E-11 0.352E-11 0.685E-04
   -.157E-07 0.604E-07 -.403E+02   0.782E-13 0.604E-13 0.379E+02   0.134E-17 -.217E-18 0.234E+01   0.797E-13 -.171E-12 0.685E-04
   0.604E-07 -.157E-07 -.403E+02   -.117E-12 0.924E-13 0.379E+02   -.684E-18 -.108E-18 0.234E+01   0.131E-11 -.160E-10 0.685E-04
   0.604E-07 -.157E-07 -.403E+02   -.103E-12 0.117E-12 0.379E+02   -.359E-18 -.119E-17 0.234E+01   -.270E-12 -.587E-11 0.685E-04
   0.604E-07 -.157E-07 -.403E+02   -.114E-12 0.175E-12 0.379E+02   -.163E-18 -.108E-17 0.234E+01   0.863E-13 0.938E-11 0.685E-04
   0.604E-07 -.157E-07 -.403E+02   -.995E-13 0.139E-12 0.379E+02   0.182E-17 -.434E-18 0.234E+01   0.165E-11 0.377E-11 0.685E-04
   -.157E-07 0.604E-07 -.403E+02   0.529E-13 0.720E-13 0.379E+02   0.121E-17 0.000E+00 0.234E+01   -.132E-11 -.378E-12 0.685E-04
   -.157E-07 0.604E-07 -.403E+02   0.658E-13 0.460E-13 0.379E+02   0.366E-18 -.434E-18 0.234E+01   -.503E-12 0.339E-11 0.685E-04
   -.157E-07 0.604E-07 -.403E+02   0.375E-13 0.274E-13 0.379E+02   -.149E-18 -.119E-17 0.234E+01   -.195E-11 -.387E-11 0.685E-04
   -.157E-07 0.604E-07 -.403E+02   0.504E-13 0.208E-13 0.379E+02   -.124E-17 0.217E-18 0.234E+01   -.515E-12 -.166E-11 0.685E-04
 -----------------------------------------------------------------------------------------------
   -.221E-05 -.221E-05 -.827E+02   0.145E-12 0.143E-12 -.369E-12   0.292E-15 0.121E-14 0.826E+02   -.128E-10 -.462E-10 0.623E-02
 
 
 POSITION                                       TOTAL-FORCE (eV/Angst)
 -----------------------------------------------------------------------------------
      1.41341      1.41126      1.22625        -0.000025      0.000138      0.000055
      6.65537      1.77787      1.22625        -0.000025      0.000138      0.000055
      1.78002      6.65322      1.22625        -0.000025      0.000138      0.000055
      7.02198      7.01983      1.22625        -0.000025      0.000138      0.000055
      4.19516      4.19731      1.22625         0.000025     -0.000138      0.000055
      9.43712      4.56392      1.22625         0.000025     -0.000138      0.000055
      4.56177      9.43927      1.22625         0.000025     -0.000138      0.000055
      9.80373      9.80588      1.22625         0.000025     -0.000138      0.000055
      1.57633      4.01186      9.05969        -0.000138      0.000025      0.000055
      6.81829      4.37847      9.05969        -0.000138      0.000025      0.000055
      1.94294      9.25382      9.05969        -0.000138      0.000025      0.000055
      7.18490      9.62043      9.05969        -0.000138      0.000025      0.000055
      4.03224      1.59671      9.05969         0.000138     -0.000025      0.000055
      9.27420      1.96332      9.05969         0.000138     -0.000025      0.000055
      4.39885      6.83867      9.05969         0.000138     -0.000025      0.000055
      9.64081      7.20528      9.05969         0.000138     -0.000025      0.000055
      1.39088      1.39303      6.44855         0.000025     -0.000138      0.000055
      6.63284      1.75964      6.44855         0.000025     -0.000138      0.000055
      1.75749      6.63499      6.44855         0.000025     -0.000138      0.000055
      6.99945      7.00160      6.44855         0.000025     -0.000138      0.000055
      4.21769      4.21554      6.44855        -0.000025      0.000138      0.000055
      9.45965      4.58215      6.44855        -0.000025      0.000138      0.000055
      4.58430      9.45750      6.44855        -0.000025      0.000138      0.000055
      9.82626      9.82411      6.44855        -0.000025      0.000138      0.000055
      4.01401      1.57418      3.83740        -0.000138      0.000025      0.000055
      9.25597      1.94079      3.83740        -0.000138      0.000025      0.000055
      4.38062      6.81614      3.83740        -0.000138      0.000025      0.000055
      9.62258      7.18275      3.83740        -0.000138      0.000025      0.000055
      1.59456      4.03439      3.83740         0.000138     -0.000025      0.000055
      6.83652      4.40100      3.83740         0.000138     -0.000025      0.000055
      1.96117      9.27635      3.83740         0.000138     -0.000025      0.000055
      7.20313      9.64296      3.83740         0.000138     -0.000025      0.000055
      0.00000      0.00000      5.29078        -0.000000      0.000000     -0.000444
      5.24196      0.36661      5.29078        -0.000000      0.000000     -0.000444
      0.36661      5.24196      5.29078        -0.000000      0.000000     -0.000444
      5.60857      5.60857      5.29078         0.000000      0.000000     -0.000444
      2.62098      0.18330      2.67963        -0.000000      0.000000     -0.000444
      7.86294      0.54991      2.67963         0.000000      0.000000     -0.000444
      2.98759      5.42527      2.67963         0.000000      0.000000     -0.000444
      8.22955      5.79188      2.67963        -0.000000      0.000000     -0.000444
      2.80429      2.80429      0.06849        -0.000000      0.000000     -0.000444
      8.04625      3.17089      0.06849        -0.000000      0.000000     -0.000444
      3.17089      8.04625      0.06849         0.000000      0.000000     -0.000444
      8.41286      8.41286      0.06849         0.000000      0.000000     -0.000444
      0.18330      2.62098      7.90192         0.000000      0.000000     -0.000444
      5.42527      2.98759      7.90192        -0.000000      0.000000     -0.000444
      0.54991      7.86294      7.90192        -0.000000      0.000000     -0.000444
      5.79188      8.22955      7.90192         0.000000      0.000000     -0.000444
      0.00000      0.00000      0.09015         0.000000      0.000000      0.000334
      5.24196      0.36661      0.09015        -0.000000      0.000000      0.000334
      0.36661      5.24196      0.09015         0.000000      0.000000      0.000334
      5.60857      5.60857      0.09015         0.000000      0.000000      0.000334
      2.62098      0.18330      7.92359        -0.000000      0.000000      0.000334
      7.86294      0.54991      7.92359        -0.000000      0.000000      0.000334
      2.98759      5.42527      7.92359         0.000000      0.000000      0.000334
      8.22955      5.79188      7.92359        -0.000000      0.000000      0.000334
      2.80429      2.80429      5.31244         0.000000      0.000000      0.000334
      8.04625      3.17089      5.31244         0.000000      0.000000      0.000334
      3.17089      8.04625      5.31244        -0.000000      0.000000      0.000334
      8.41286      8.41286      5.31244        -0.000000      0.000000      0.000334
      0.18330      2.62098      2.70130        -0.000000      0.000000      0.000334
      5.42527      2.98759      2.70130        -0.000000      0.000000      0.000334
      0.54991      7.86294      2.70130        -0.000000      0.000000      0.000334
      5.79188      8.22955      2.70130         0.000000      0.000000      0.000334
 -----------------------------------------------------------------------------------
    total drift:                               -0.000002     -0.000002     -0.032288


--------------------------------------------------------------------------------------------------------



  FREE ENERGIE OF THE ION-ELECTRON SYSTEM (eV)
  ---------------------------------------------------
  free  energy   TOTEN  =      -326.02733745 eV

  energy  without entropy=     -326.02733745  energy(sigma->0) =     -326.02733745
 


--------------------------------------------------------------------------------------------------------


    POTLOK:  cpu time    0.1650: real time    0.1657


--------------------------------------------------------------------------------------------------------


 writing wavefunctions
     LOOP+:  cpu time 3208.5720: real time 3729.8454
    4ORBIT:  cpu time    0.0000: real time    0.0000
 


 total charge     
 
# of ion       s       p       d       tot
------------------------------------------
    1        1.316   2.404   0.000   3.719
    2        1.316   2.404   0.000   3.719
    3        1.316   2.404   0.000   3.719
    4        1.316   2.404   0.000   3.719
    5        1.316   2.404   0.000   3.719
    6        1.316   2.404   0.000   3.719
    7        1.316   2.404   0.000   3.719
    8        1.316   2.404   0.000   3.719
    9        1.316   2.404   0.000   3.720
   10        1.316   2.404   0.000   3.720
   11        1.316   2.404   0.000   3.720
   12        1.316   2.404   0.000   3.720
   13        1.316   2.404   0.000   3.719
   14        1.316   2.404   0.000   3.719
   15        1.316   2.404   0.000   3.719
   16        1.316   2.404   0.000   3.719
   17        1.316   2.404   0.000   3.719
   18        1.316   2.404   0.000   3.719
   19        1.316   2.404   0.000   3.719
   20        1.316   2.404   0.000   3.719
   21        1.316   2.404   0.000   3.719
   22        1.316   2.404   0.000   3.719
   23        1.316   2.404   0.000   3.719
   24        1.316   2.404   0.000   3.719
   25        1.316   2.404   0.000   3.720
   26        1.316   2.404   0.000   3.720
   27        1.316   2.404   0.000   3.720
   28        1.316   2.404   0.000   3.720
   29        1.316   2.404   0.000   3.719
   30        1.316   2.404   0.000   3.719
   31        1.316   2.404   0.000   3.719
   32        1.316   2.404   0.000   3.719
   33        0.258   6.200   8.916  15.374
   34        0.258   6.200   8.916  15.374
   35        0.258   6.200   8.916  15.374
   36        0.258   6.200   8.916  15.374
   37        0.257   6.200   8.916  15.374
   38        0.257   6.200   8.916  15.374
   39        0.257   6.200   8.916  15.374
   40        0.257   6.200   8.916  15.374
   41        0.258   6.200   8.916  15.374
   42        0.258   6.200   8.916  15.374
   43        0.258   6.200   8.916  15.374
   44        0.258   6.200   8.916  15.374
   45        0.257   6.200   8.916  15.374
   46        0.257   6.200   8.916  15.374
   47        0.257   6.200   8.916  15.374
   48        0.257   6.200   8.916  15.374
   49        0.345   6.343   5.824  12.512
   50        0.345   6.343   5.824  12.512
   51        0.345   6.343   5.824  12.512
   52        0.345   6.343   5.824  12.512
   53        0.345   6.343   5.824  12.512
   54        0.345   6.343   5.824  12.512
   55        0.345   6.343   5.824  12.512
   56        0.345   6.343   5.824  12.512
   57        0.345   6.343   5.824  12.512
   58        0.345   6.343   5.824  12.512
   59        0.345   6.343   5.824  12.512
   60        0.345   6.343   5.824  12.512
   61        0.345   6.343   5.824  12.512
   62        0.345   6.343   5.824  12.512
   63        0.345   6.343   5.824  12.512
   64        0.345   6.343   5.824  12.512
--------------------------------------------------
tot         51.740 277.608 235.847 565.195
 


 magnetization (x)
 
# of ion       s       p       d       tot
------------------------------------------
    1       -0.002  -0.034   0.000  -0.036
    2       -0.002  -0.034   0.000  -0.036
    3       -0.002  -0.034   0.000  -0.036
    4       -0.002  -0.034   0.000  -0.036
    5       -0.002  -0.034   0.000  -0.036
    6       -0.002  -0.034   0.000  -0.036
    7       -0.002  -0.034   0.000  -0.036
    8       -0.002  -0.034   0.000  -0.036
    9        0.002   0.034   0.000   0.036
   10        0.002   0.034   0.000   0.036
   11        0.002   0.034   0.000   0.036
   12        0.002   0.034   0.000   0.036
   13        0.002   0.034   0.000   0.036
   14        0.002   0.034   0.000   0.036
   15        0.002   0.034   0.000   0.036
   16        0.002   0.034   0.000   0.036
   17       -0.002  -0.034   0.000  -0.036
   18       -0.002  -0.034   0.000  -0.036
   19       -0.002  -0.034   0.000  -0.036
   20       -0.002  -0.034   0.000  -0.036
   21       -0.002  -0.034   0.000  -0.036
   22       -0.002  -0.034   0.000  -0.036
   23       -0.002  -0.034   0.000  -0.036
   24       -0.002  -0.034   0.000  -0.036
   25        0.002   0.034   0.000   0.036
   26        0.002   0.034   0.000   0.036
   27        0.002   0.034   0.000   0.036
   28        0.002   0.034   0.000   0.036
   29        0.002   0.034   0.000   0.036
   30        0.002   0.034   0.000   0.036
   31        0.002   0.034   0.000   0.036
   32        0.002   0.034   0.000   0.036
   33       -0.000  -0.001   0.006   0.005
   34       -0.000  -0.001   0.006   0.005
   35       -0.000  -0.001   0.006   0.005
   36       -0.000  -0.001   0.006   0.005
   37        0.000   0.001  -0.007  -0.006
   38        0.000   0.001  -0.007  -0.006
   39        0.000   0.001  -0.007  -0.006
   40        0.000   0.001  -0.007  -0.006
   41       -0.000  -0.001   0.006   0.005
   42       -0.000  -0.001   0.006   0.005
   43       -0.000  -0.001   0.006   0.005
   44       -0.000  -0.001   0.006   0.005
   45        0.000   0.001  -0.007  -0.006
   46        0.000   0.001  -0.007  -0.006
   47        0.000   0.001  -0.007  -0.006
   48        0.000   0.001  -0.007  -0.006
   49        0.020   0.052   3.666   3.738
   50        0.020   0.052   3.666   3.738
   51        0.020   0.052   3.666   3.738
   52        0.020   0.052   3.666   3.738
   53       -0.020  -0.052  -3.665  -3.738
   54       -0.020  -0.052  -3.665  -3.738
   55       -0.020  -0.052  -3.665  -3.738
   56       -0.020  -0.052  -3.665  -3.738
   57        0.020   0.052   3.666   3.738
   58        0.020   0.052   3.666   3.738
   59        0.020   0.052   3.666   3.738
   60        0.020   0.052   3.666   3.738
   61       -0.020  -0.052  -3.665  -3.738
   62       -0.020  -0.052  -3.665  -3.738
   63       -0.020  -0.052  -3.665  -3.738
   64       -0.020  -0.052  -3.665  -3.738
--------------------------------------------------
tot         -0.002   0.002  -0.002  -0.002
 
 BZINTS: Fermi energy:  5.263721;688.000000 electrons
         Band energy:***********;  BLOECHL correction:  0.000000

 total amount of memory used by VASP MPI-rank0   658257. kBytes
=======================================================================

   base      :      30000. kBytes
   nonl-proj :     485900. kBytes
   fftplans  :       4588. kBytes
   grid      :      69719. kBytes
   one-center:       1990. kBytes
   wavefun   :      66060. kBytes
 
  
  
 General timing and accounting informations for this job:
 ========================================================
  
                  Total CPU time used (sec):     3319.390
                            User time (sec):     3296.534
                          System time (sec):       22.856
                         Elapsed time (sec):     3842.717
  
                   Maximum memory used (kb):     1164516.
                   Average memory used (kb):           0.
  
                          Minor page faults:       583117
                          Major page faults:         4896
                 Voluntary context switches:         7339
