       N       E                     dE             d eps       ncg     rms          rms(c)
DAV:   1     0.599580011217E+04    0.59958E+04   -0.51899E+05 16384   0.197E+03
DAV:   2    -0.132758954766E+03   -0.61286E+04   -0.60234E+04 17920   0.447E+02
DAV:   3    -0.381092370580E+03   -0.24833E+03   -0.24754E+03 23040   0.976E+01
DAV:   4    -0.384493003837E+03   -0.34006E+01   -0.34005E+01 19456   0.115E+01
DAV:   5    -0.384600266873E+03   -0.10726E+00   -0.10726E+00 21760   0.201E+00    0.590E+01
DAV:   6    -0.342167661854E+03    0.42433E+02   -0.62020E+01 25344   0.251E+01    0.344E+01
DAV:   7    -0.331031694131E+03    0.11136E+02   -0.34775E+01 21248   0.196E+01    0.291E+01
DAV:   8    -0.328275653371E+03    0.27560E+01   -0.18715E+01 23552   0.110E+01    0.109E+01
DAV:   9    -0.327962279458E+03    0.31337E+00   -0.91799E+00 22016   0.992E+00    0.805E+00
DAV:  10    -0.327848775708E+03    0.11350E+00   -0.57129E+00 23040   0.598E+00    0.505E+00
DAV:  11    -0.327833031357E+03    0.15744E-01   -0.67612E-01 19712   0.214E+00    0.181E+00
DAV:  12    -0.327867305598E+03   -0.34274E-01   -0.21877E-01 27136   0.866E-01    0.852E-01
DAV:  13    -0.327878294448E+03   -0.10989E-01   -0.44498E-02 18432   0.412E-01    0.345E-01
DAV:  14    -0.327881732535E+03   -0.34381E-02   -0.79725E-03 22528   0.118E-01    0.213E-01
DAV:  15    -0.327883594730E+03   -0.18622E-02   -0.42965E-03 21504   0.778E-02    0.120E-01
DAV:  16    -0.327884491745E+03   -0.89702E-03   -0.30146E-03 22016   0.536E-02    0.757E-02
DAV:  17    -0.327884792168E+03   -0.30042E-03   -0.15728E-03 17408   0.423E-02    0.387E-02
DAV:  18    -0.327884855031E+03   -0.62863E-04   -0.44916E-04 22528   0.222E-02    0.194E-02
DAV:  19    -0.327884859291E+03   -0.42597E-05   -0.19058E-05 17152   0.891E-03    0.115E-02
DAV:  20    -0.327884861561E+03   -0.22702E-05   -0.10372E-05 23808   0.392E-03    0.594E-03
DAV:  21    -0.327884862407E+03   -0.84570E-06   -0.32229E-06 18944   0.212E-03    0.297E-03
DAV:  22    -0.327884862621E+03   -0.21431E-06   -0.45690E-07 26112   0.832E-04    0.162E-03
DAV:  23    -0.327884862678E+03   -0.56883E-07   -0.13564E-07 20480   0.434E-04    0.867E-04
DAV:  24    -0.327884862732E+03   -0.54206E-07   -0.17974E-07 20992   0.420E-04    0.447E-04
DAV:  25    -0.327884862751E+03   -0.19209E-07   -0.44231E-08 13824   0.231E-04    0.259E-04
DAV:  26    -0.327884862757E+03   -0.51368E-08   -0.42018E-09 15872   0.103E-04
   1 F= -.32788486E+03 E0= -.32788486E+03  d E =0.000000E+00  mag=     0.0000
