 vasp.5.4.4.18Apr17-6-g9f103f2a35 (build Oct 30 2023 17:30:16) complex          
  
 executed on             LinuxIFC date 2024.06.30  04:42:38
 running on  256 total cores
 distrk:  each k-point on  256 cores,    1 groups
 distr:  one band on NCORES_PER_BAND=   1 cores,  256 groups


--------------------------------------------------------------------------------------------------------


 INCAR:
 POTCAR:    PAW_PBE S 06Sep2000                   
 POTCAR:     PAW_PBE Cu_pv 06Sep2000              
 POTCAR:     PAW_PBE Fe_pv 02Aug2007              

 ----------------------------------------------------------------------------- 
|                                                                             |
|           W    W    AA    RRRRR   N    N  II  N    N   GGGG   !!!           |
|           W    W   A  A   R    R  NN   N  II  NN   N  G    G  !!!           |
|           W    W  A    A  R    R  N N  N  II  N N  N  G       !!!           |
|           W WW W  AAAAAA  RRRRR   N  N N  II  N  N N  G  GGG   !            |
|           WW  WW  A    A  R   R   N   NN  II  N   NN  G    G                |
|           W    W  A    A  R    R  N    N  II  N    N   GGGG   !!!           |
|                                                                             |
|      For optimal performance we recommend to set                            |
|        NCORE= 4 - approx SQRT( number of cores)                             |
|      NCORE specifies how many cores store one orbital (NPAR=cpu/NCORE).     |
|      This setting can  greatly improve the performance of VASP for DFT.     |
|      The default,   NCORE=1            might be grossly inefficient         |
|      on modern multi-core architectures or massively parallel machines.     |
|      Do your own testing !!!!                                               |
|      Unfortunately you need to use the default for GW and RPA calculations. |
|      (for HF NCORE is supported but not extensively tested yet)             |
|                                                                             |
 ----------------------------------------------------------------------------- 

 POTCAR:    PAW_PBE S 06Sep2000                   
   SHA256 =  0fc7481fb0695f01bdc6462160264c5c84044ae9ec85a907d398b887a2bc3132 S/
   COPYR  = (c) Copyright 06Sep2000 Georg Kresse                                
   COPYR  = This file is part of the software VASP. Any use, copying, and all ot
   COPYR  = If you do not have a valid VASP license, you may not use, copy or di
   VRHFIN =S : s2p4                                                             
   LEXCH  = PE                                                                  
   EATOM  =   276.8230 eV,   20.3459 Ry                                         
                                                                                
   TITEL  = PAW_PBE S 06Sep2000                                                 
   LULTRA =        F    use ultrasoft PP ?                                      
   IUNSCR =        1    unscreen: 0-lin 1-nonlin 2-no                           
   RPACOR =    1.500    partial core radius                                     
   POMASS =   32.066; ZVAL   =    6.000    mass and valenz                      
   RCORE  =    1.900    outmost cutoff radius                                   
   RWIGS  =    2.200; RWIGS  =    1.164    wigner-seitz radius (au A)           
   ENMAX  =  258.689; ENMIN  =  194.016 eV                                      
   ICORE  =        2    local potential                                         
   LCOR   =        T    correct aug charges                                     
   LPAW   =        T    paw PP                                                  
   EAUG   =  335.092                                                            
   DEXC   =    0.000                                                            
   RMAX   =    1.942    core radius for proj-oper                               
   RAUG   =    1.300    factor for augmentation sphere                          
   RDEP   =    1.954    radius for radial grids                                 
   RDEPT  =    1.744    core radius for aug-charge                              
                                                                                
   Atomic configuration                                                         
    6 entries                                                                   
     n  l   j            E        occ.                                          
     1  0  0.50     -2405.8406   2.0000                                         
     2  0  0.50      -211.7007   2.0000                                         
     2  1  1.50      -156.4958   6.0000                                         
     3  0  0.50       -17.2562   2.0000                                         
     3  1  0.50        -7.0085   4.0000                                         
     3  2  1.50        -6.8029   0.0000                                         
   Description                                                                  
     l       E           TYP  RCUT    TYP  RCUT                                 
     0    -17.2561641     23  1.900                                             
     0    -15.8743224     23  1.900                                             
     1     -7.0085400     23  1.900                                             
     1     -2.7779785     23  1.900                                             
     2     -6.8029130     23  1.900                                             
  local pseudopotential read in
  partial core-charges read in
  partial kinetic energy density read in
  atomic valenz-charges read in
  non local Contribution for L=           0  read in
    real space projection operators read in
  non local Contribution for L=           0  read in
    real space projection operators read in
  non local Contribution for L=           1  read in
    real space projection operators read in
  non local Contribution for L=           1  read in
    real space projection operators read in
    PAW grid and wavefunctions read in
 
   number of l-projection  operators is LMAX  =           4
   number of lm-projection operators is LMMAX =           8
 
 POTCAR:     PAW_PBE Cu_pv 06Sep2000              
   SHA256 =  cb7b504e2ea725fe1f25c85a9ac77d4012ce94cd394135b722c4e25ec297f1cb Cu
   COPYR  = (c) Copyright 06Sep2000 Georg Kresse                                
   COPYR  = This file is part of the software VASP. Any use, copying, and all ot
   COPYR  = If you do not have a valid VASP license, you may not use, copy or di
   VRHFIN =Cu: d10 p1                                                           
   LEXCH  = PE                                                                  
   EATOM  =  4120.1201 eV,  302.8203 Ry                                         
                                                                                
   TITEL  = PAW_PBE Cu_pv 06Sep2000                                             
   LULTRA =        F    use ultrasoft PP ?                                      
   IUNSCR =        1    unscreen: 0-lin 1-nonlin 2-no                           
   RPACOR =    1.500    partial core radius                                     
   POMASS =   63.546; ZVAL   =   17.000    mass and valenz                      
   RCORE  =    2.000    outmost cutoff radius                                   
   RWIGS  =    2.000; RWIGS  =    1.058    wigner-seitz radius (au A)           
   ENMAX  =  368.648; ENMIN  =  276.486 eV                                      
   RCLOC  =    1.304    cutoff for local pot                                    
   LCOR   =        T    correct aug charges                                     
   LPAW   =        T    paw PP                                                  
   EAUG   =  758.233                                                            
   DEXC   =    0.000                                                            
   RMAX   =    2.046    core radius for proj-oper                               
   RAUG   =    1.300    factor for augmentation sphere                          
   RDEP   =    2.025    radius for radial grids                                 
   RDEPT  =    1.558    core radius for aug-charge                              
                                                                                
   Atomic configuration                                                         
    8 entries                                                                   
     n  l   j            E        occ.                                          
     1  0  0.50     -8850.2467   2.0000                                         
     2  0  0.50     -1062.3498   2.0000                                         
     2  1  1.50      -916.8226   6.0000                                         
     3  0  0.50      -114.6929   2.0000                                         
     3  1  1.50       -72.1325   6.0000                                         
     3  2  2.50        -5.0394  10.0000                                         
     4  0  0.50        -4.6097   1.0000                                         
     4  3  2.50        -1.3606   0.0000                                         
   Description                                                                  
     l       E           TYP  RCUT    TYP  RCUT                                 
     1    -72.1324777     23  1.700                                             
     1     -1.3605826     23  1.700                                             
     2     -5.0393776     23  2.000                                             
     2     -6.3999602     23  2.000                                             
     0     -4.6097062     23  1.800                                             
     0     14.1620818     23  1.800                                             
  local pseudopotential read in
  partial core-charges read in
  partial kinetic energy density read in
  atomic valenz-charges read in
  non local Contribution for L=           1  read in
    real space projection operators read in
  non local Contribution for L=           1  read in
    real space projection operators read in
  non local Contribution for L=           2  read in
    real space projection operators read in
  non local Contribution for L=           2  read in
    real space projection operators read in
  non local Contribution for L=           0  read in
    real space projection operators read in
  non local Contribution for L=           0  read in
    real space projection operators read in
    PAW grid and wavefunctions read in
 
   number of l-projection  operators is LMAX  =           6
   number of lm-projection operators is LMMAX =          18
 
 POTCAR:     PAW_PBE Fe_pv 02Aug2007              
   SHA256 =  5d22e414b1f82158bf2c7ecb8b97b28fd0923e48cadc1c3bf74d524558f5dd32 Fe
   COPYR  = (c) Copyright 02Aug2007 Georg Kresse                                
   COPYR  = This file is part of the software VASP. Any use, copying, and all ot
   COPYR  = If you do not have a valid VASP license, you may not use, copy or di
   VRHFIN =Fe:  3pd7s1                                                          
   LEXCH  = PE                                                                  
   EATOM  =  2457.4239 eV,  180.6156 Ry                                         
                                                                                
   TITEL  = PAW_PBE Fe_pv 02Aug2007                                             
   LULTRA =        F    use ultrasoft PP ?                                      
   IUNSCR =        1    unscreen: 0-lin 1-nonlin 2-no                           
   RPACOR =    1.750    partial core radius                                     
   POMASS =   55.847; ZVAL   =   14.000    mass and valenz                      
   RCORE  =    2.200    outmost cutoff radius                                   
   RWIGS  =    2.200; RWIGS  =    1.164    wigner-seitz radius (au A)           
   ENMAX  =  293.238; ENMIN  =  219.928 eV                                      
   ICORE  =        3    local potential                                         
   LCOR   =        T    correct aug charges                                     
   LPAW   =        T    paw PP                                                  
   EAUG   =  578.342                                                            
   DEXC   =    0.000                                                            
   RMAX   =    2.249    core radius for proj-oper                               
   RAUG   =    1.300    factor for augmentation sphere                          
   RDEP   =    2.296    radius for radial grids                                 
   RDEPT  =    1.766    core radius for aug-charge                              
                                                                                
   Atomic configuration                                                         
    8 entries                                                                   
     n  l   j            E        occ.                                          
     1  0  0.50     -6993.8440   2.0000                                         
     2  0  0.50      -814.6047   2.0000                                         
     2  1  1.50      -693.3689   6.0000                                         
     3  0  0.50       -89.4732   2.0000                                         
     3  1  1.50       -55.6373   6.0000                                         
     3  2  2.50        -3.8151   7.0000                                         
     4  0  0.50        -4.2551   1.0000                                         
     4  3  2.50        -1.3606   0.0000                                         
   Description                                                                  
     l       E           TYP  RCUT    TYP  RCUT                                 
     1    -55.6372668     23  2.000                                             
     1     -5.4423304     23  2.000                                             
     2     -3.8151096     23  2.200                                             
     2     -5.1756922     23  2.200                                             
     0     -4.2550951     23  2.200                                             
     0     27.2116520     23  2.200                                             
     3     -1.3605826     23  2.200                                             
  local pseudopotential read in
  partial core-charges read in
  partial kinetic energy density read in
  atomic valenz-charges read in
  non local Contribution for L=           1  read in
    real space projection operators read in
  non local Contribution for L=           1  read in
    real space projection operators read in
  non local Contribution for L=           2  read in
    real space projection operators read in
  non local Contribution for L=           2  read in
    real space projection operators read in
  non local Contribution for L=           0  read in
    real space projection operators read in
  non local Contribution for L=           0  read in
    real space projection operators read in
    PAW grid and wavefunctions read in
 
   number of l-projection  operators is LMAX  =           6
   number of lm-projection operators is LMMAX =          18
 

 ----------------------------------------------------------------------------- 
|                                                                             |
|  ADVICE TO THIS USER RUNNING 'VASP/VAMP'   (HEAR YOUR MASTER'S VOICE ...):  |
|                                                                             |
|      You have a (more or less) 'large supercell' and for larger cells       |
|      it might be more efficient to use real space projection opertators     |
|      So try LREAL= Auto  in the INCAR   file.                               |
|      Mind:          For very  accurate calculation you might also keep the  |
|      reciprocal projection scheme          (i.e. LREAL=.FALSE.)             |
|                                                                             |
 ----------------------------------------------------------------------------- 


 ----------------------------------------------------------------------------- 
|                                                                             |
|  ADVICE TO THIS USER RUNNING 'VASP/VAMP'   (HEAR YOUR MASTER'S VOICE ...):  |
|                                                                             |
|      You enforced a specific xc-type in the INCAR file,                     |
|      a different type was found on the POTCAR file                          |
|          I HOPE YOU KNOW, WHAT YOU ARE  DOING                               |
|                                                                             |
 ----------------------------------------------------------------------------- 

  PAW_PBE S 06Sep2000                   :
 energy of atom  1       EATOM= -276.8230
 kinetic energy error for atom=    0.0007 (will be added to EATOM!!)
   PAW_PBE Cu_pv 06Sep2000              :
 energy of atom  2       EATOM=-4120.1201
 kinetic energy error for atom=    0.0094 (will be added to EATOM!!)
   PAW_PBE Fe_pv 02Aug2007              :
 energy of atom  3       EATOM=-2457.4239
 kinetic energy error for atom=    0.0025 (will be added to EATOM!!)
 
 
 POSCAR: Fe16 Cu16 S32                           
  positions in direct lattice
  No initial velocities read in
 exchange correlation table for  LEXCH =       14
   RHO(1)=    0.500       N(1)  =     2000
   RHO(2)=  100.500       N(2)  =     4000
 


--------------------------------------------------------------------------------------------------------


 ion  position               nearest neighbor table
   1  0.126  0.122  0.125-  41 2.26  61 2.27  37 2.27  49 2.28
   2  0.626  0.122  0.125-  42 2.26  62 2.27  38 2.27  50 2.28
   3  0.126  0.622  0.125-  43 2.26  63 2.27  39 2.27  51 2.28
   4  0.626  0.622  0.125-  44 2.26  64 2.27  40 2.27  52 2.28
   5  0.374  0.372  0.125-  39 2.26  52 2.27  41 2.27  62 2.28
   6  0.874  0.372  0.125-  40 2.26  51 2.27  42 2.27  61 2.28
   7  0.374  0.872  0.125-  37 2.26  50 2.27  43 2.27  64 2.28
   8  0.874  0.872  0.125-  38 2.26  49 2.27  44 2.27  63 2.28
   9  0.125  0.372  0.875-  41 2.27  45 2.27  51 2.27  55 2.27
  10  0.625  0.372  0.875-  42 2.27  46 2.27  52 2.27  56 2.27
  11  0.125  0.872  0.875-  43 2.27  47 2.27  49 2.27  53 2.27
  12  0.625  0.872  0.875-  44 2.27  48 2.27  50 2.27  54 2.27
  13  0.375  0.124  0.875-  41 2.26  46 2.26  50 2.28  53 2.28
  14  0.875  0.124  0.875-  42 2.26  45 2.26  49 2.28  54 2.28
  15  0.375  0.624  0.875-  43 2.26  48 2.26  52 2.28  55 2.28
  16  0.875  0.624  0.875-  44 2.26  47 2.26  51 2.28  56 2.28
  17  0.124  0.122  0.625-  45 2.26  57 2.27  33 2.27  53 2.28
  18  0.624  0.122  0.625-  46 2.26  58 2.27  34 2.27  54 2.28
  19  0.124  0.622  0.625-  47 2.26  59 2.27  35 2.27  55 2.28
  20  0.624  0.622  0.625-  48 2.26  60 2.27  36 2.27  56 2.28
  21  0.376  0.372  0.625-  36 2.26  55 2.27  46 2.27  57 2.28
  22  0.876  0.372  0.625-  35 2.26  56 2.27  45 2.27  58 2.28
  23  0.376  0.872  0.625-  34 2.26  53 2.27  48 2.27  59 2.28
  24  0.876  0.872  0.625-  33 2.26  54 2.27  47 2.27  60 2.28
  25  0.375  0.122  0.375-  34 2.27  37 2.27  57 2.27  62 2.27
  26  0.875  0.122  0.375-  33 2.27  38 2.27  58 2.27  61 2.27
  27  0.375  0.622  0.375-  36 2.27  39 2.27  59 2.27  64 2.27
  28  0.875  0.622  0.375-  35 2.27  40 2.27  60 2.27  63 2.27
  29  0.125  0.374  0.375-  35 2.26  39 2.26  57 2.28  61 2.28
  30  0.625  0.374  0.375-  36 2.26  40 2.26  58 2.28  62 2.28
  31  0.125  0.874  0.375-  33 2.26  37 2.26  59 2.28  63 2.28
  32  0.625  0.874  0.375-  34 2.26  38 2.26  60 2.28  64 2.28
  33  0.999  0.002  0.500-  24 2.26  31 2.26  26 2.27  17 2.27
  34  0.499  0.002  0.500-  23 2.26  32 2.26  25 2.27  18 2.27
  35  0.999  0.502  0.500-  22 2.26  29 2.26  28 2.27  19 2.27
  36  0.499  0.502  0.500-  21 2.26  30 2.26  27 2.27  20 2.27
  37  0.251  0.002  0.250-   7 2.26  31 2.26  25 2.27   1 2.27
  38  0.751  0.002  0.250-   8 2.26  32 2.26  26 2.27   2 2.27
  39  0.251  0.502  0.250-   5 2.26  29 2.26  27 2.27   3 2.27
  40  0.751  0.502  0.250-   6 2.26  30 2.26  28 2.27   4 2.27
  41  0.249  0.252  0.000-   1 2.26  13 2.26   9 2.27   5 2.27
  42  0.749  0.252  0.000-   2 2.26  14 2.26  10 2.27   6 2.27
  43  0.249  0.752  0.000-   3 2.26  15 2.26  11 2.27   7 2.27
  44  0.749  0.752  0.000-   4 2.26  16 2.26  12 2.27   8 2.27
  45  0.001  0.252  0.750-  17 2.26  14 2.26   9 2.27  22 2.27
  46  0.501  0.252  0.750-  18 2.26  13 2.26  10 2.27  21 2.27
  47  0.001  0.752  0.750-  19 2.26  16 2.26  11 2.27  24 2.27
  48  0.501  0.752  0.750-  20 2.26  15 2.26  12 2.27  23 2.27
  49  0.999  0.002  0.001-   8 2.27  11 2.27  14 2.28   1 2.28
  50  0.499  0.002  0.001-   7 2.27  12 2.27  13 2.28   2 2.28
  51  0.999  0.502  0.001-   6 2.27   9 2.27  16 2.28   3 2.28
  52  0.499  0.502  0.001-   5 2.27  10 2.27  15 2.28   4 2.28
  53  0.251  0.002  0.749-  23 2.27  11 2.27  13 2.28  17 2.28
  54  0.751  0.002  0.749-  24 2.27  12 2.27  14 2.28  18 2.28
  55  0.251  0.502  0.749-  21 2.27   9 2.27  15 2.28  19 2.28
  56  0.751  0.502  0.749-  22 2.27  10 2.27  16 2.28  20 2.28
  57  0.249  0.252  0.501-  17 2.27  25 2.27  29 2.28  21 2.28
  58  0.749  0.252  0.501-  18 2.27  26 2.27  30 2.28  22 2.28
  59  0.249  0.752  0.501-  19 2.27  27 2.27  31 2.28  23 2.28
  60  0.749  0.752  0.501-  20 2.27  28 2.27  32 2.28  24 2.28
  61  0.001  0.252  0.249-   1 2.27  26 2.27  29 2.28   6 2.28
  62  0.501  0.252  0.249-   2 2.27  25 2.27  30 2.28   5 2.28
  63  0.001  0.752  0.249-   3 2.27  28 2.27  31 2.28   8 2.28
  64  0.501  0.752  0.249-   4 2.27  27 2.27  32 2.28   7 2.28
 
  LATTYP: Found a simple monoclinic cell.
 ALAT       =    15.1322601402
 B/A-ratio  =     0.6954482610
 C/A-ratio  =     1.5694354063
 COS(beta)  =    -0.9527022353
  
  Lattice vectors:
  
 A1 = ( -10.7512560000,   0.0000000000, -10.6487460000)
 A2 = (   0.0000000000, -10.5237040000,   0.0000000000)
 A3 = (  10.9963040000,   0.0000000000,  21.0499710000)


Analysis of symmetry for initial positions (statically):
=====================================================================
 Subroutine PRICEL returns following result:
 
  LATTYP: Found a base centered monoclinic cell.
 ALAT       =    11.4327119026
 B/A-ratio  =     0.4602453070
 C/A-ratio  =     0.9100300346
 COS(beta)  =    -0.8070148236
  
  Lattice vectors:
  
 A1 = (  -2.5040280000,  -2.6309260000,   5.1387322500)
 A2 = (  -2.5040280000,   2.6309260000,   5.1387322500)
 A3 = (  -0.2450480000,   0.0000000000, -10.4012250000)
 
   8 primitive cells build up your supercell.
 

 Routine SETGRP: Setting up the symmetry group for a 
 simple monoclinic supercell.


 Subroutine GETGRP returns: Found  2 space group operations
 (whereof  1 operations were pure point group operations)
 out of a pool of  4 trial point group operations.


The static configuration has the point symmetry C_1 .
 The point group associated with its full space group is C_2 .


Analysis of symmetry for dynamics (positions and initial velocities):
=====================================================================
 Subroutine PRICEL returns following result:
 
  LATTYP: Found a base centered monoclinic cell.
 ALAT       =    11.4327119026
 B/A-ratio  =     0.4602453070
 C/A-ratio  =     0.9100300346
 COS(beta)  =    -0.8070148236
  
  Lattice vectors:
  
 A1 = (  -2.5040280000,  -2.6309260000,   5.1387322500)
 A2 = (  -2.5040280000,   2.6309260000,   5.1387322500)
 A3 = (  -0.2450480000,   0.0000000000, -10.4012250000)
 
   8 primitive cells build up your supercell.
 

 Routine SETGRP: Setting up the symmetry group for a 
 simple monoclinic supercell.


 Subroutine GETGRP returns: Found  2 space group operations
 (whereof  1 operations were pure point group operations)
 out of a pool of  4 trial point group operations.


The dynamic configuration has the point symmetry C_1 .
 The point group associated with its full space group is C_2 .


Analysis of structural, dynamic, and magnetic symmetry:
=====================================================================
 Subroutine PRICEL returns following result:
 
  LATTYP: Found a base centered monoclinic cell.
 ALAT       =    11.4327119026
 B/A-ratio  =     0.4602453070
 C/A-ratio  =     0.9100300346
 COS(beta)  =    -0.8070148236
  
  Lattice vectors:
  
 A1 = (  -2.5040280000,  -2.6309260000,   5.1387322500)
 A2 = (  -2.5040280000,   2.6309260000,   5.1387322500)
 A3 = (  -0.2450480000,   0.0000000000, -10.4012250000)
 
   8 primitive cells build up your supercell.
 

 Routine SETGRP: Setting up the symmetry group for a 
 simple monoclinic supercell.


 Subroutine GETGRP returns: Found  2 space group operations
 (whereof  1 operations were pure point group operations)
 out of a pool of  4 trial point group operations.


The magnetic configuration has the point symmetry C_1 .
 The point group associated with its full space group is C_2 .


 Subroutine INISYM returns: Found  2 space group operations
 (whereof  1 operations are pure point group operations),
 and found     8 'primitive' translations

 
 
 KPOINTS: Automatic mesh                          

Automatic generation of k-mesh.
Space group operators:
 irot       det(A)        alpha          n_x          n_y          n_z        tau_x        tau_y        tau_z
    1     1.000000     0.000001     1.000000     0.000000     0.000000     0.000000     0.000000     0.000000
    2     1.000000   179.999999     0.000000     1.000000     0.000000    -0.250000    -0.000000    -0.250000
 
 Subroutine IBZKPT returns following result:
 ===========================================
 
 Found      8 irreducible k-points:
 
 Following reciprocal coordinates:
            Coordinates               Weight
  0.000000  0.000000  0.000000      1.000000
  0.500000  0.000000  0.000000      1.000000
  0.000000  0.500000  0.000000      1.000000
  0.500000  0.500000  0.000000      1.000000
  0.000000  0.000000  0.500000      1.000000
  0.500000  0.000000  0.500000      1.000000
  0.000000  0.500000  0.500000      1.000000
  0.500000  0.500000  0.500000      1.000000
 
 Following cartesian coordinates:
            Coordinates               Weight
  0.000000  0.000000  0.000000      1.000000
  0.047617  0.000000 -0.001122      1.000000
  0.000000  0.047512  0.000000      1.000000
  0.047617  0.047512 -0.001122      1.000000
 -0.001133  0.000000  0.048098      1.000000
  0.046484  0.000000  0.046976      1.000000
 -0.001133  0.047512  0.048098      1.000000
  0.046484  0.047512  0.046976      1.000000
 
 TETIRR: Found     24 inequivalent tetrahedra from       48
 
 Subroutine IBZKPT_HF returns following result:
 ==============================================
 
 Found      8 k-points in 1st BZ
 the following      8 k-points will be used (e.g. in the exchange kernel)
 Following reciprocal coordinates:   # in IRBZ
  0.000000  0.000000  0.000000    0.12500000   1 t-inv F
  0.500000  0.000000  0.000000    0.12500000   2 t-inv F
  0.000000  0.500000  0.000000    0.12500000   3 t-inv F
  0.500000  0.500000  0.000000    0.12500000   4 t-inv F
  0.000000  0.000000  0.500000    0.12500000   5 t-inv F
  0.500000  0.000000  0.500000    0.12500000   6 t-inv F
  0.000000  0.500000  0.500000    0.12500000   7 t-inv F
  0.500000  0.500000  0.500000    0.12500000   8 t-inv F


--------------------------------------------------------------------------------------------------------




 Dimension of arrays:
   k-points           NKPTS =      8   k-points in BZ     NKDIM =      8   number of bands    NBANDS=    512
   number of dos      NEDOS =    301   number of ions     NIONS =     64
   non local maximal  LDIM  =      6   non local SUM 2l+1 LMDIM =     18
   total plane-waves  NPLWV = 829440
   max r-space proj   IRMAX =      1   max aug-charges    IRDMAX=  22932
   dimension x,y,z NGX =    96 NGY =   96 NGZ =   90
   dimension x,y,z NGXF=   192 NGYF=  192 NGZF=  180
   support grid    NGXF=   192 NGYF=  192 NGZF=  180
   ions per type =              32  16  16
   NGX,Y,Z   is equivalent  to a cutoff of  15.19, 15.17, 14.38 a.u.
   NGXF,Y,Z  is equivalent  to a cutoff of  30.37, 30.33, 28.76 a.u.

 SYSTEM =  CuFeS2                                  
 POSCAR =  Fe16 Cu16 S32                           

 Startparameter for this run:
   NWRITE =      2    write-flag & timer
   PREC   = accura    normal or accurate (medium, high low for compatibility)
   ISTART =      0    job   : 0-new  1-cont  2-samecut
   ICHARG =      1    charge: 1-file 2-atom 10-const
   ISPIN  =      2    spin polarized calculation?
   LNONCOLLINEAR =      F non collinear calculations
   LSORBIT =      F    spin-orbit coupling
   INIWAV =      1    electr: 0-lowe 1-rand  2-diag
   LASPH  =      F    aspherical Exc in radial PAW
   METAGGA=      F    non-selfconsistent MetaGGA calc.

 Electronic Relaxation 1
   ENCUT  =  700.0 eV  51.45 Ry    7.17 a.u.  22.67 22.70 22.44*2*pi/ulx,y,z
   ENINI  =  700.0     initial cutoff
   ENAUG  =  758.2 eV  augmentation charge cutoff
   NELM   =    500;   NELMIN=  2; NELMDL=  0     # of ELM steps 
   EDIFF  = 0.1E-07   stopping-criterion for ELM
   LREAL  =      F    real-space projection
   NLSPLINE    = F    spline interpolate recip. space projectors
   LCOMPAT=      F    compatible to vasp.4.4
   GGA_COMPAT  = T    GGA compatible to vasp.4.4-vasp.4.6
   LMAXPAW     = -100 max onsite density
   LMAXMIX     =    4 max onsite mixed and CHGCAR
   VOSKOWN=      0    Vosko Wilk Nusair interpolation
   ROPT   =    0.00000   0.00000   0.00000
 Ionic relaxation
   EDIFFG = -.1E-04   stopping-criterion for IOM
   NSW    =      0    number of steps for IOM
   NBLOCK =      1;   KBLOCK =      1    inner block; outer block 
   IBRION =     -1    ionic relax: 0-MD 1-quasi-New 2-CG
   NFREE  =      0    steps in history (QN), initial steepest desc. (CG)
   ISIF   =      2    stress and relaxation
   IWAVPR =     10    prediction:  0-non 1-charg 2-wave 3-comb
   ISYM   =      2    0-nonsym 1-usesym 2-fastsym
   LCORR  =      T    Harris-Foulkes like correction to forces

   POTIM  = 0.5000    time-step for ionic-motion
   TEIN   =    0.0    initial temperature
   TEBEG  =    0.0;   TEEND  =   0.0 temperature during run
   SMASS  =  -3.00    Nose mass-parameter (am)
   estimated Nose-frequenzy (Omega)   =  0.10E-29 period in steps =****** mass=  -0.252E-26a.u.
   SCALEE = 1.0000    scale energy and forces
   NPACO  =    256;   APACO  = 16.0  distance and # of slots for P.C.
   PSTRESS=    0.0 pullay stress

  Mass of Ions in am
   POMASS =  32.07 63.55 55.85
  Ionic Valenz
   ZVAL   =   6.00 17.00 14.00
  Atomic Wigner-Seitz radii
   RWIGS  =  -1.00 -1.00 -1.00
  virtual crystal weights 
   VCA    =   1.00  1.00  1.00
   NELECT =     688.0000    total number of electrons
   NUPDOWN=      -1.0000    fix difference up-down

 DOS related values:
   EMIN   =  10.00;   EMAX   =-10.00  energy-range for DOS
   EFERMI =   0.00
   ISMEAR =    -5;   SIGMA  =   0.03  broadening in eV -4-tet -1-fermi 0-gaus

 Electronic relaxation 2 (details)
   IALGO  =     38    algorithm
   LDIAG  =      T    sub-space diagonalisation (order eigenvalues)
   LSUBROT=      F    optimize rotation matrix (better conditioning)
   TURBO    =      0    0=normal 1=particle mesh
   IRESTART =      0    0=no restart 2=restart with 2 vectors
   NREBOOT  =      0    no. of reboots
   NMIN     =      0    reboot dimension
   EREF     =   0.00    reference energy to select bands
   IMIX   =      4    mixing-type and parameters
     AMIX     =   0.40;   BMIX     =  1.00
     AMIX_MAG =   1.60;   BMIX_MAG =  1.00
     AMIN     =   0.10
     WC   =   100.;   INIMIX=   1;  MIXPRE=   1;  MAXMIX= -45

 Intra band minimization:
   WEIMIN = 0.0000     energy-eigenvalue tresh-hold
   EBREAK =  0.49E-11  absolut break condition
   DEPER  =   0.30     relativ break condition  

   TIME   =   0.40     timestep for ELM

  volume/ion in A,a.u.               =      17.96       121.19
  Fermi-wavevector in a.u.,A,eV,Ry     =   1.379701  2.607257 25.899708  1.903575
  Thomas-Fermi vector in A             =   2.504646
 
 Write flags
   LWAVE        =      T    write WAVECAR
   LDOWNSAMPLE  =      F    k-point downsampling of WAVECAR
   LCHARG       =      T    write CHGCAR
   LVTOT        =      F    write LOCPOT, total local potential
   LVHAR        =      F    write LOCPOT, Hartree potential only
   LELF         =      F    write electronic localiz. function (ELF)
   LORBIT       =     11    0 simple, 1 ext, 2 COOP (PROOUT), +10 PAW based schemes


 Dipole corrections
   LMONO  =      F    monopole corrections only (constant potential shift)
   LDIPOL =      F    correct potential (dipole corrections)
   IDIPOL =      0    1-x, 2-y, 3-z, 4-all directions 
   EPSILON=  1.0000000 bulk dielectric constant

 LDA+U is selected, type is set to LDAUTYPE =  2
   angular momentum for each species LDAUL =     2    2    2
   U (eV)           for each species LDAUU =   0.0  0.1  4.7
   J (eV)           for each species LDAUJ =   0.0  0.0  0.0
 Exchange correlation treatment:
   GGA     =    PS    GGA type
   LEXCH   =    14    internal setting for exchange type
   VOSKOWN=      0    Vosko Wilk Nusair interpolation
   LHFCALC =     F    Hartree Fock is set to
   LHFONE  =     F    Hartree Fock one center treatment
   AEXX    =    0.0000 exact exchange contribution

 Linear response parameters
   LEPSILON=     F    determine dielectric tensor
   LRPA    =     F    only Hartree local field effects (RPA)
   LNABLA  =     F    use nabla operator in PAW spheres
   LVEL    =     F    velocity operator in full k-point grid
   LINTERFAST=   F  fast interpolation
   KINTER  =     0    interpolate to denser k-point grid
   CSHIFT  =0.1000    complex shift for real part using Kramers Kronig
   OMEGAMAX=  -1.0    maximum frequency
   DEG_THRESHOLD= 0.2000000E-02 threshold for treating states as degnerate
   RTIME   =   -0.100 relaxation time in fs
  (WPLASMAI=    0.000 imaginary part of plasma frequency in eV, 0.658/RTIME)
   DFIELD  = 0.0000000 0.0000000 0.0000000 field for delta impulse in time
 
 Orbital magnetization related:
   ORBITALMAG=     F  switch on orbital magnetization
   LCHIMAG   =     F  perturbation theory with respect to B field
   DQ        =  0.001000  dq finite difference perturbation B field
   LLRAUG    =     F  two centre corrections for induced B field

 PEAD related settings:
   LPEAD      =     T    switch on PEAD
   IPEAD      =     4    finite difference order for dpsi/dk
   LCALCPOL   =     T    calculate macroscopic polarization
   LCALCEPS   =     F    calculate dielectric tensor
   EFIELD_PEAD=    0.0000    0.0000    0.0000
   SKIP_EDOTP =     F
   LRPA       =     F
   SKIP_SCF   =     F


--------------------------------------------------------------------------------------------------------


 Static calculation
 charge density and potential will be updated during run
 spin polarized calculation
 Variant of blocked Davidson
 Davidson routine will perform the subspace rotation
 perform sub-space diagonalisation
    after iterative eigenvector-optimisation
 modified Broyden-mixing scheme, WC =      100.0
 initial mixing is a Kerker type mixing with AMIX =  0.4000 and BMIX =      1.0000
 Hartree-type preconditioning will be used
 using additional bands          168
 reciprocal scheme for non local part
 use partial core corrections
 calculate Harris-corrections to forces 
   (improved forces if not selfconsistent)
 use gradient corrections 
 use of overlap-Matrix (Vanderbilt PP)
 Fermi weights with tetrahedron method with Bloechl corrections


--------------------------------------------------------------------------------------------------------


  energy-cutoff  :      700.00
  volume of cell :     1149.37
      direct lattice vectors                 reciprocal lattice vectors
    10.506208000  0.000000000  0.247521000     0.095234680  0.000000000 -0.002243685
     0.000000000 10.523704000  0.000000000     0.000000000  0.095023577  0.000000000
     0.245048000  0.000000000 10.401225000    -0.002266328  0.000000000  0.096195915

  length of vectors
    10.509123331 10.523704000 10.404111208     0.095261107  0.095023577  0.096222608


 
 k-points in units of 2pi/SCALE and weight: Automatic mesh                          
   0.00000000  0.00000000  0.00000000       0.125
   0.04761734  0.00000000 -0.00112184       0.125
   0.00000000  0.04751179  0.00000000       0.125
   0.04761734  0.04751179 -0.00112184       0.125
  -0.00113316  0.00000000  0.04809796       0.125
   0.04648418  0.00000000  0.04697612       0.125
  -0.00113316  0.04751179  0.04809796       0.125
   0.04648418  0.04751179  0.04697612       0.125
 
 k-points in reciprocal lattice and weights: Automatic mesh                          
   0.00000000  0.00000000  0.00000000       0.125
   0.50000000  0.00000000  0.00000000       0.125
   0.00000000  0.50000000  0.00000000       0.125
   0.50000000  0.50000000  0.00000000       0.125
   0.00000000  0.00000000  0.50000000       0.125
   0.50000000  0.00000000  0.50000000       0.125
   0.00000000  0.50000000  0.50000000       0.125
   0.50000000  0.50000000  0.50000000       0.125
 
 position of ions in fractional coordinates (direct lattice) 
   0.12634600  0.12190300  0.12544200
   0.62634600  0.12190300  0.12544200
   0.12634600  0.62190300  0.12544200
   0.62634600  0.62190300  0.12544200
   0.37365400  0.37190300  0.12455800
   0.87365400  0.37190300  0.12455800
   0.37365400  0.87190300  0.12455800
   0.87365400  0.87190300  0.12455800
   0.12500000  0.37229400  0.87500000
   0.62500000  0.37229400  0.87500000
   0.12500000  0.87229400  0.87500000
   0.62500000  0.87229400  0.87500000
   0.37500000  0.12414100  0.87500000
   0.87500000  0.12414100  0.87500000
   0.37500000  0.62414100  0.87500000
   0.87500000  0.62414100  0.87500000
   0.12365400  0.12190300  0.62455800
   0.62365400  0.12190300  0.62455800
   0.12365400  0.62190300  0.62455800
   0.62365400  0.62190300  0.62455800
   0.37634600  0.37190300  0.62544200
   0.87634600  0.37190300  0.62544200
   0.37634600  0.87190300  0.62544200
   0.87634600  0.87190300  0.62544200
   0.37500000  0.12229400  0.37500000
   0.87500000  0.12229400  0.37500000
   0.37500000  0.62229400  0.37500000
   0.87500000  0.62229400  0.37500000
   0.12500000  0.37414100  0.37500000
   0.62500000  0.37414100  0.37500000
   0.12500000  0.87414100  0.37500000
   0.62500000  0.87414100  0.37500000
   0.99873500  0.00245100  0.50001100
   0.49873500  0.00245100  0.50001100
   0.99873500  0.50245100  0.50001100
   0.49873500  0.50245100  0.50001100
   0.25126500  0.00245100  0.24998900
   0.75126500  0.00245100  0.24998900
   0.25126500  0.50245100  0.24998900
   0.75126500  0.50245100  0.24998900
   0.24873500  0.25245100  0.00001100
   0.74873500  0.25245100  0.00001100
   0.24873500  0.75245100  0.00001100
   0.74873500  0.75245100  0.00001100
   0.00126500  0.25245100  0.74998900
   0.50126500  0.25245100  0.74998900
   0.00126500  0.75245100  0.74998900
   0.50126500  0.75245100  0.74998900
   0.99921000  0.00242900  0.00052800
   0.49921000  0.00242900  0.00052800
   0.99921000  0.50242900  0.00052800
   0.49921000  0.50242900  0.00052800
   0.25079000  0.00242900  0.74947200
   0.75079000  0.00242900  0.74947200
   0.25079000  0.50242900  0.74947200
   0.75079000  0.50242900  0.74947200
   0.24921000  0.25242900  0.50052800
   0.74921000  0.25242900  0.50052800
   0.24921000  0.75242900  0.50052800
   0.74921000  0.75242900  0.50052800
   0.00079000  0.25242900  0.24947200
   0.50079000  0.25242900  0.24947200
   0.00079000  0.75242900  0.24947200
   0.50079000  0.75242900  0.24947200
 
 position of ions in cartesian coordinates  (Angst):
   1.35815667  1.28287109  1.33602375
   6.61126067  1.28287109  1.45978425
   1.35815667  6.54472309  1.33602375
   6.61126067  6.54472309  1.45978425
   3.95620933  3.91379709  1.38804300
   9.20931333  3.91379709  1.51180350
   3.95620933  9.17564909  1.38804300
   9.20931333  9.17564909  1.51180350
   1.52769300  3.91791186  9.13201200
   6.78079700  3.91791186  9.25577250
   1.52769300  9.17976386  9.13201200
   6.78079700  9.17976386  9.25577250
   4.15424500  1.30642314  9.19389225
   9.40734900  1.30642314  9.31765275
   4.15424500  6.56827514  9.19389225
   9.40734900  6.56827514  9.31765275
   1.45218133  1.28287109  6.52677525
   6.70528533  1.28287109  6.65053575
   1.45218133  6.54472309  6.52677525
   6.70528533  6.54472309  6.65053575
   4.10723267  3.91379709  6.59851650
   9.36033667  3.91379709  6.72227700
   4.10723267  9.17564909  6.59851650
   9.36033667  9.17564909  6.72227700
   4.03172100  1.28698586  3.99327975
   9.28482500  1.28698586  4.11704025
   4.03172100  6.54883786  3.99327975
   9.28482500  6.54883786  4.11704025
   1.40516900  3.93734914  3.93139950
   6.65827300  3.93734914  4.05516000
   1.40516900  9.19920114  3.93139950
   6.65827300  9.19920114  4.05516000
  10.61544434  0.02579360  5.44793480
   5.36234034  0.02579360  5.32417430
  10.61544434  5.28764560  5.44793480
   5.36234034  5.28764560  5.32417430
   2.70110166  0.02579360  2.66238520
   7.95420566  0.02579360  2.78614570
   2.70110166  5.28764560  2.66238520
   7.95420566  5.28764560  2.78614570
   2.61326434  2.65671960  0.06168155
   7.86636834  2.65671960  0.18544205
   2.61326434  7.91857160  0.06168155
   7.86636834  7.91857160  0.18544205
   0.19707366  2.65671960  7.80111745
   5.45017766  2.65671960  7.92487795
   0.19707366  7.91857160  7.80111745
   5.45017766  7.91857160  7.92487795
  10.49803748  0.02556208  0.25281731
   5.24493348  0.02556208  0.12905681
  10.49803748  5.28741408  0.25281731
   5.24493348  5.28741408  0.12905681
   2.81850852  0.02556208  7.85750269
   8.07161252  0.02556208  7.98126319
   2.81850852  5.28741408  7.85750269
   8.07161252  5.28741408  7.98126319
   2.74090548  2.65648808  5.26778906
   7.99400948  2.65648808  5.39154956
   2.74090548  7.91834008  5.26778906
   7.99400948  7.91834008  5.39154956
   0.06943252  2.65648808  2.59500994
   5.32253652  2.65648808  2.71877044
   0.06943252  7.91834008  2.59500994
   5.32253652  7.91834008  2.71877044
 


--------------------------------------------------------------------------------------------------------


 k-point  1 :   0.0000 0.0000 0.0000  plane waves:   48363
 k-point  2 :   0.5000 0.0000 0.0000  plane waves:   48378
 k-point  3 :   0.0000 0.5000 0.0000  plane waves:   48354
 k-point  4 :   0.5000 0.5000 0.0000  plane waves:   48368
 k-point  5 :   0.0000 0.0000 0.5000  plane waves:   48330
 k-point  6 :   0.5000 0.0000 0.5000  plane waves:   48344
 k-point  7 :   0.0000 0.5000 0.5000  plane waves:   48344
 k-point  8 :   0.5000 0.5000 0.5000  plane waves:   48272

 maximum and minimum number of plane-waves per node :     48378    48272

 maximum number of plane-waves:     48378
 maximum index in each direction: 
   IXMAX=   22   IYMAX=   22   IZMAX=   22
   IXMIN=  -23   IYMIN=  -23   IZMIN=  -22


 serial   3D FFT for wavefunctions
 parallel 3D FFT for charge:
    minimum data exchange during FFTs selected (reduces bandwidth)


 total amount of memory used by VASP MPI-rank0   348353. kBytes
=======================================================================

   base      :      30000. kBytes
   nonl-proj :     216760. kBytes
   fftplans  :       4588. kBytes
   grid      :      69719. kBytes
   one-center:       1990. kBytes
   wavefun   :      25296. kBytes
 
     INWAV:  cpu time    0.0000: real time    0.0000
 Broyden mixing: mesh for mixing (old mesh)
   NGX = 45   NGY = 45   NGZ = 45
  (NGX  =192   NGY  =192   NGZ  =180)
  gives a total of  91125 points

 initial charge density was supplied:
 number of electron     687.9999938 magnetization      -0.0000000
 keeping initial charge density in first step


--------------------------------------------------------------------------------------------------------


 Maximum index for augmentation-charges          898 (set IRDMAX)


--------------------------------------------------------------------------------------------------------


 First call to EWALD:  gamma=   0.169
 Maximum number of real-space cells 3x 3x 3
 Maximum number of reciprocal cells 3x 3x 3

    FEWALD:  cpu time    0.0031: real time    0.0032


--------------------------------------- Iteration      1(   1)  ---------------------------------------


    POTLOK:  cpu time    0.3790: real time    0.4295
    SETDIJ:  cpu time    0.0148: real time    0.0150
     EDDAV:  cpu time   84.0892: real time   84.7781
 BZINTS: Fermi energy: 14.600802;688.000000 electrons
         Band energy:***********;  BLOECHL correction: -0.020352
       DOS:  cpu time    0.0397: real time    0.0399
    --------------------------------------------
      LOOP:  cpu time   84.5228: real time   85.2625

 eigenvalue-minimisations  : 16384
 total energy-change (2. order) : 0.5995800E+04  (-0.5189908E+05)
 number of electron     687.9999938 magnetization      -0.0000000
 augmentation part      687.9999938 magnetization      -0.0000000

 Free energy of the ion-electron system (eV)
  ---------------------------------------------------
  alpha Z        PSCENC =      2358.82458831
  Ewald energy   TEWEN  =    -62500.01989053
  -Hartree energ DENC   =    -42657.06543881
  -exchange      EXHF   =         0.00000000
  -V(xc)+E(xc)   XCENC  =      3279.07211135
  PAW double counting   =    112052.39469906  -115742.30158738
  entropy T*S    EENTRO =         0.00000000
  eigenvalues    EBANDS =     -4815.16947744
  atomic energy  EATOM  =    114020.06510763
  Solvation  Ediel_sol  =         0.00000000
  ---------------------------------------------------
  free energy    TOTEN  =      5995.80011217 eV

  energy without entropy =     5995.80011217  energy(sigma->0) =     5995.80011217


--------------------------------------------------------------------------------------------------------




--------------------------------------- Iteration      1(   2)  ---------------------------------------


     EDDAV:  cpu time   97.8912: real time   98.6305
 BZINTS: Fermi energy:  5.118491;688.000000 electrons
         Band energy:***********;  BLOECHL correction: -0.086845
       DOS:  cpu time    0.0359: real time    0.0360
    --------------------------------------------
      LOOP:  cpu time   97.9271: real time   98.6665

 eigenvalue-minimisations  : 17920
 total energy-change (2. order) :-0.6128559E+04  (-0.6023427E+04)
 number of electron     687.9999938 magnetization      -0.0000000
 augmentation part      687.9999938 magnetization      -0.0000000

 Free energy of the ion-electron system (eV)
  ---------------------------------------------------
  alpha Z        PSCENC =      2358.82458831
  Ewald energy   TEWEN  =    -62500.01989053
  -Hartree energ DENC   =    -42657.06543881
  -exchange      EXHF   =         0.00000000
  -V(xc)+E(xc)   XCENC  =      3279.07211135
  PAW double counting   =    112052.39469906  -115742.30158738
  entropy T*S    EENTRO =         0.00000000
  eigenvalues    EBANDS =    -10943.72854438
  atomic energy  EATOM  =    114020.06510763
  Solvation  Ediel_sol  =         0.00000000
  ---------------------------------------------------
  free energy    TOTEN  =      -132.75895477 eV

  energy without entropy =     -132.75895477  energy(sigma->0) =     -132.75895477


--------------------------------------------------------------------------------------------------------




--------------------------------------- Iteration      1(   3)  ---------------------------------------


     EDDAV:  cpu time  159.9962: real time  161.0805
 BZINTS: Fermi energy:  4.766986;688.000000 electrons
         Band energy:***********;  BLOECHL correction:  0.000000
       DOS:  cpu time    0.0080: real time    0.0080
    --------------------------------------------
      LOOP:  cpu time  160.0042: real time  161.0885

 eigenvalue-minimisations  : 23040
 total energy-change (2. order) :-0.2483334E+03  (-0.2475394E+03)
 number of electron     687.9999938 magnetization      -0.0000000
 augmentation part      687.9999938 magnetization      -0.0000000

 Free energy of the ion-electron system (eV)
  ---------------------------------------------------
  alpha Z        PSCENC =      2358.82458831
  Ewald energy   TEWEN  =    -62500.01989053
  -Hartree energ DENC   =    -42657.06543881
  -exchange      EXHF   =         0.00000000
  -V(xc)+E(xc)   XCENC  =      3279.07211135
  PAW double counting   =    112052.39469906  -115742.30158738
  entropy T*S    EENTRO =         0.00000000
  eigenvalues    EBANDS =    -11192.06196020
  atomic energy  EATOM  =    114020.06510763
  Solvation  Ediel_sol  =         0.00000000
  ---------------------------------------------------
  free energy    TOTEN  =      -381.09237058 eV

  energy without entropy =     -381.09237058  energy(sigma->0) =     -381.09237058


--------------------------------------------------------------------------------------------------------




--------------------------------------- Iteration      1(   4)  ---------------------------------------


     EDDAV:  cpu time  122.4456: real time  123.3160
 BZINTS: Fermi energy:  4.739323;688.000000 electrons
         Band energy:***********;  BLOECHL correction:  0.000000
       DOS:  cpu time    0.0078: real time    0.0079
    --------------------------------------------
      LOOP:  cpu time  122.4535: real time  123.3239

 eigenvalue-minimisations  : 19456
 total energy-change (2. order) :-0.3400633E+01  (-0.3400490E+01)
 number of electron     687.9999938 magnetization      -0.0000000
 augmentation part      687.9999938 magnetization      -0.0000000

 Free energy of the ion-electron system (eV)
  ---------------------------------------------------
  alpha Z        PSCENC =      2358.82458831
  Ewald energy   TEWEN  =    -62500.01989053
  -Hartree energ DENC   =    -42657.06543881
  -exchange      EXHF   =         0.00000000
  -V(xc)+E(xc)   XCENC  =      3279.07211135
  PAW double counting   =    112052.39469906  -115742.30158738
  entropy T*S    EENTRO =         0.00000000
  eigenvalues    EBANDS =    -11195.46259345
  atomic energy  EATOM  =    114020.06510763
  Solvation  Ediel_sol  =         0.00000000
  ---------------------------------------------------
  free energy    TOTEN  =      -384.49300384 eV

  energy without entropy =     -384.49300384  energy(sigma->0) =     -384.49300384


--------------------------------------------------------------------------------------------------------




--------------------------------------- Iteration      1(   5)  ---------------------------------------


     EDDAV:  cpu time  148.3475: real time  149.3716
 BZINTS: Fermi energy:  4.754448;688.000000 electrons
         Band energy:***********;  BLOECHL correction:  0.000000
       DOS:  cpu time    0.0077: real time    0.0078
    CHARGE:  cpu time    1.4182: real time    1.4272
    MIXING:  cpu time    0.0042: real time    0.0043
    --------------------------------------------
      LOOP:  cpu time  149.7777: real time  150.8108

 eigenvalue-minimisations  : 21760
 total energy-change (2. order) :-0.1072630E+00  (-0.1072626E+00)
 number of electron     688.0000096 magnetization      -0.0000000
 augmentation part      286.4804393 magnetization      -0.0000000

 Broyden mixing:
  rms(total) = 0.59026E+01    rms(broyden)= 0.59019E+01
  rms(prec ) = 0.66300E+01
  weight for this iteration     100.00

 Free energy of the ion-electron system (eV)
  ---------------------------------------------------
  alpha Z        PSCENC =      2358.82458831
  Ewald energy   TEWEN  =    -62500.01989053
  -Hartree energ DENC   =    -42657.06543881
  -exchange      EXHF   =         0.00000000
  -V(xc)+E(xc)   XCENC  =      3279.07211135
  PAW double counting   =    112052.39469906  -115742.30158738
  entropy T*S    EENTRO =         0.00000000
  eigenvalues    EBANDS =    -11195.56985649
  atomic energy  EATOM  =    114020.06510763
  Solvation  Ediel_sol  =         0.00000000
  ---------------------------------------------------
  free energy    TOTEN  =      -384.60026687 eV

  energy without entropy =     -384.60026687  energy(sigma->0) =     -384.60026687


--------------------------------------------------------------------------------------------------------




--------------------------------------- Iteration      1(   6)  ---------------------------------------


    POTLOK:  cpu time    0.1368: real time    0.1407
    SETDIJ:  cpu time    0.0130: real time    0.0131
     EDDAV:  cpu time  171.1977: real time  172.3667
 BZINTS: Fermi energy:  5.117026;688.000000 electrons
         Band energy:***********;  BLOECHL correction:  0.000000
       DOS:  cpu time    0.0061: real time    0.0061
    CHARGE:  cpu time    1.4157: real time    1.4241
    MIXING:  cpu time    0.0023: real time    0.0089
    --------------------------------------------
      LOOP:  cpu time  172.7718: real time  173.9596

 eigenvalue-minimisations  : 25344
 total energy-change (2. order) : 0.4243261E+02  (-0.6201986E+01)
 number of electron     688.0000094 magnetization      -0.0000000
 augmentation part      279.4458497 magnetization      -0.0000000

 Broyden mixing:
  rms(total) = 0.34449E+01    rms(broyden)= 0.34449E+01
  rms(prec ) = 0.38446E+01
  weight for this iteration     100.00

 eigenvalues of (default mixing * dielectric matrix)
  average eigenvalue GAMMA=   0.7083
  0.7083

 Free energy of the ion-electron system (eV)
  ---------------------------------------------------
  alpha Z        PSCENC =      2358.82458831
  Ewald energy   TEWEN  =    -62500.01989053
  -Hartree energ DENC   =    -43050.60937955
  -exchange      EXHF   =         0.00000000
  -V(xc)+E(xc)   XCENC  =      3288.08438909
  PAW double counting   =    116578.91627637  -120319.26964788
  entropy T*S    EENTRO =         0.00000000
  eigenvalues    EBANDS =    -10718.15910529
  atomic energy  EATOM  =    114020.06510763
  Solvation  Ediel_sol  =         0.00000000
  ---------------------------------------------------
  free energy    TOTEN  =      -342.16766185 eV

  energy without entropy =     -342.16766185  energy(sigma->0) =     -342.16766185


--------------------------------------------------------------------------------------------------------




--------------------------------------- Iteration      1(   7)  ---------------------------------------


    POTLOK:  cpu time    0.1386: real time    0.1395
    SETDIJ:  cpu time    0.0130: real time    0.0131
     EDDAV:  cpu time  134.5324: real time  135.4807
 BZINTS: Fermi energy:  4.982776;688.000000 electrons
         Band energy:***********;  BLOECHL correction:  0.000000
       DOS:  cpu time    0.0052: real time    0.0052
    CHARGE:  cpu time    1.4140: real time    1.4226
    MIXING:  cpu time    0.0016: real time    0.0031
    --------------------------------------------
      LOOP:  cpu time  136.1047: real time  137.0642

 eigenvalue-minimisations  : 21248
 total energy-change (2. order) : 0.1113597E+02  (-0.3477523E+01)
 number of electron     688.0000094 magnetization      -0.0000000
 augmentation part      283.5224647 magnetization      -0.0000000

 Broyden mixing:
  rms(total) = 0.29144E+01    rms(broyden)= 0.29144E+01
  rms(prec ) = 0.30965E+01
  weight for this iteration     100.00

 eigenvalues of (default mixing * dielectric matrix)
  average eigenvalue GAMMA=   0.8364
  1.2238  0.4489

 Free energy of the ion-electron system (eV)
  ---------------------------------------------------
  alpha Z        PSCENC =      2358.82458831
  Ewald energy   TEWEN  =    -62500.01989053
  -Hartree energ DENC   =    -42853.58476057
  -exchange      EXHF   =         0.00000000
  -V(xc)+E(xc)   XCENC  =      3285.65656832
  PAW double counting   =    115711.83256878  -119397.00897436
  entropy T*S    EENTRO =         0.00000000
  eigenvalues    EBANDS =    -10956.79690171
  atomic energy  EATOM  =    114020.06510763
  Solvation  Ediel_sol  =         0.00000000
  ---------------------------------------------------
  free energy    TOTEN  =      -331.03169413 eV

  energy without entropy =     -331.03169413  energy(sigma->0) =     -331.03169413


--------------------------------------------------------------------------------------------------------




--------------------------------------- Iteration      1(   8)  ---------------------------------------


    POTLOK:  cpu time    0.1400: real time    0.1409
    SETDIJ:  cpu time    0.0129: real time    0.0130
     EDDAV:  cpu time  165.8712: real time  166.9940
 BZINTS: Fermi energy:  4.895598;688.000000 electrons
         Band energy:***********;  BLOECHL correction:  0.000000
       DOS:  cpu time    0.0061: real time    0.0061
    CHARGE:  cpu time    1.4159: real time    1.4247
    MIXING:  cpu time    0.0012: real time    0.0012
    --------------------------------------------
      LOOP:  cpu time  167.4472: real time  168.5799

 eigenvalue-minimisations  : 23552
 total energy-change (2. order) : 0.2756041E+01  (-0.1871540E+01)
 number of electron     688.0000096 magnetization      -0.0000000
 augmentation part      283.4205471 magnetization      -0.0000000

 Broyden mixing:
  rms(total) = 0.10877E+01    rms(broyden)= 0.10876E+01
  rms(prec ) = 0.11996E+01
  weight for this iteration     100.00

 eigenvalues of (default mixing * dielectric matrix)
  average eigenvalue GAMMA=   1.0030
  1.8409  0.7033  0.4647

 Free energy of the ion-electron system (eV)
  ---------------------------------------------------
  alpha Z        PSCENC =      2358.82458831
  Ewald energy   TEWEN  =    -62500.01989053
  -Hartree energ DENC   =    -42848.54470189
  -exchange      EXHF   =         0.00000000
  -V(xc)+E(xc)   XCENC  =      3284.19628977
  PAW double counting   =    114628.95579224  -118316.27429081
  entropy T*S    EENTRO =         0.00000000
  eigenvalues    EBANDS =    -10955.47854810
  atomic energy  EATOM  =    114020.06510763
  Solvation  Ediel_sol  =         0.00000000
  ---------------------------------------------------
  free energy    TOTEN  =      -328.27565337 eV

  energy without entropy =     -328.27565337  energy(sigma->0) =     -328.27565337


--------------------------------------------------------------------------------------------------------




--------------------------------------- Iteration      1(   9)  ---------------------------------------


    POTLOK:  cpu time    0.1412: real time    0.1421
    SETDIJ:  cpu time    0.0129: real time    0.0129
     EDDAV:  cpu time  153.5729: real time  154.6132
 BZINTS: Fermi energy:  5.005971;688.000000 electrons
         Band energy:***********;  BLOECHL correction:  0.000000
       DOS:  cpu time    0.0060: real time    0.0060
    CHARGE:  cpu time    1.4138: real time    1.4225
    MIXING:  cpu time    0.0013: real time    0.0013
    --------------------------------------------
      LOOP:  cpu time  155.1479: real time  156.1980

 eigenvalue-minimisations  : 22016
 total energy-change (2. order) : 0.3133739E+00  (-0.9179889E+00)
 number of electron     688.0000095 magnetization      -0.0000000
 augmentation part      282.0845960 magnetization      -0.0000000

 Broyden mixing:
  rms(total) = 0.80514E+00    rms(broyden)= 0.80512E+00
  rms(prec ) = 0.93005E+00
  weight for this iteration     100.00

 eigenvalues of (default mixing * dielectric matrix)
  average eigenvalue GAMMA=   0.9062
  1.8445  0.8012  0.5795  0.3994

 Free energy of the ion-electron system (eV)
  ---------------------------------------------------
  alpha Z        PSCENC =      2358.82458831
  Ewald energy   TEWEN  =    -62500.01989053
  -Hartree energ DENC   =    -42966.39083222
  -exchange      EXHF   =         0.00000000
  -V(xc)+E(xc)   XCENC  =      3287.94493733
  PAW double counting   =    113978.18425453  -117677.60051780
  entropy T*S    EENTRO =         0.00000000
  eigenvalues    EBANDS =    -10828.96992671
  atomic energy  EATOM  =    114020.06510763
  Solvation  Ediel_sol  =         0.00000000
  ---------------------------------------------------
  free energy    TOTEN  =      -327.96227946 eV

  energy without entropy =     -327.96227946  energy(sigma->0) =     -327.96227946


--------------------------------------------------------------------------------------------------------




--------------------------------------- Iteration      1(  10)  ---------------------------------------


    POTLOK:  cpu time    0.1398: real time    0.1408
    SETDIJ:  cpu time    0.0131: real time    0.0131
     EDDAV:  cpu time  162.3178: real time  163.4172
 BZINTS: Fermi energy:  4.948369;688.000000 electrons
         Band energy:***********;  BLOECHL correction:  0.000000
       DOS:  cpu time    0.0060: real time    0.0060
    CHARGE:  cpu time    1.4169: real time    1.4253
    MIXING:  cpu time    0.0017: real time    0.0031
    --------------------------------------------
      LOOP:  cpu time  163.8952: real time  165.0055

 eigenvalue-minimisations  : 23040
 total energy-change (2. order) : 0.1135038E+00  (-0.5712872E+00)
 number of electron     688.0000096 magnetization       0.0000000
 augmentation part      281.9221075 magnetization       0.0000000

 Broyden mixing:
  rms(total) = 0.50470E+00    rms(broyden)= 0.50468E+00
  rms(prec ) = 0.58174E+00
  weight for this iteration     100.00

 eigenvalues of (default mixing * dielectric matrix)
  average eigenvalue GAMMA=   0.9858
  1.7214  1.7214  0.6204  0.5545  0.3111

 Free energy of the ion-electron system (eV)
  ---------------------------------------------------
  alpha Z        PSCENC =      2358.82458831
  Ewald energy   TEWEN  =    -62500.01989053
  -Hartree energ DENC   =    -42939.15446172
  -exchange      EXHF   =         0.00000000
  -V(xc)+E(xc)   XCENC  =      3286.35681797
  PAW double counting   =    113519.14262773  -117215.17584808
  entropy T*S    EENTRO =         0.00000000
  eigenvalues    EBANDS =    -10857.88771701
  atomic energy  EATOM  =    114020.06510763
  Solvation  Ediel_sol  =         0.00000000
  ---------------------------------------------------
  free energy    TOTEN  =      -327.84877571 eV

  energy without entropy =     -327.84877571  energy(sigma->0) =     -327.84877571


--------------------------------------------------------------------------------------------------------




--------------------------------------- Iteration      1(  11)  ---------------------------------------


    POTLOK:  cpu time    0.1404: real time    0.1414
    SETDIJ:  cpu time    0.0128: real time    0.0129
     EDDAV:  cpu time  118.9687: real time  119.8220
 BZINTS: Fermi energy:  4.954685;688.000000 electrons
         Band energy:***********;  BLOECHL correction:  0.000000
       DOS:  cpu time    0.0060: real time    0.0060
    CHARGE:  cpu time    1.4155: real time    1.4242
    MIXING:  cpu time    0.0016: real time    0.0016
    --------------------------------------------
      LOOP:  cpu time  120.5450: real time  121.4082

 eigenvalue-minimisations  : 19712
 total energy-change (2. order) : 0.1574435E-01  (-0.6761240E-01)
 number of electron     688.0000096 magnetization       0.0000000
 augmentation part      282.2284855 magnetization       0.0000000

 Broyden mixing:
  rms(total) = 0.18065E+00    rms(broyden)= 0.18065E+00
  rms(prec ) = 0.19792E+00
  weight for this iteration     100.00

 eigenvalues of (default mixing * dielectric matrix)
  average eigenvalue GAMMA=   1.0777
  2.0649  2.0649  0.7711  0.6188  0.6188  0.3278

 Free energy of the ion-electron system (eV)
  ---------------------------------------------------
  alpha Z        PSCENC =      2358.82458831
  Ewald energy   TEWEN  =    -62500.01989053
  -Hartree energ DENC   =    -42928.29615959
  -exchange      EXHF   =         0.00000000
  -V(xc)+E(xc)   XCENC  =      3286.42855360
  PAW double counting   =    112826.32853485  -116518.82679649
  entropy T*S    EENTRO =         0.00000000
  eigenvalues    EBANDS =    -10872.33696914
  atomic energy  EATOM  =    114020.06510763
  Solvation  Ediel_sol  =         0.00000000
  ---------------------------------------------------
  free energy    TOTEN  =      -327.83303136 eV

  energy without entropy =     -327.83303136  energy(sigma->0) =     -327.83303136


--------------------------------------------------------------------------------------------------------




--------------------------------------- Iteration      1(  12)  ---------------------------------------


    POTLOK:  cpu time    0.1385: real time    0.1396
    SETDIJ:  cpu time    0.0130: real time    0.0131
     EDDAV:  cpu time  199.9897: real time  201.3185
 BZINTS: Fermi energy:  4.961812;688.000000 electrons
         Band energy:***********;  BLOECHL correction:  0.000000
       DOS:  cpu time    0.0060: real time    0.0061
    CHARGE:  cpu time    1.4161: real time    1.4249
    MIXING:  cpu time    0.0015: real time    0.0015
    --------------------------------------------
      LOOP:  cpu time  201.5648: real time  202.9036

 eigenvalue-minimisations  : 27136
 total energy-change (2. order) :-0.3427424E-01  (-0.2187668E-01)
 number of electron     688.0000095 magnetization       0.0000000
 augmentation part      282.2318430 magnetization       0.0000000

 Broyden mixing:
  rms(total) = 0.85202E-01    rms(broyden)= 0.85194E-01
  rms(prec ) = 0.94384E-01
  weight for this iteration     100.00

 eigenvalues of (default mixing * dielectric matrix)
  average eigenvalue GAMMA=   1.1269
  2.2675  2.2675  1.0933  0.6932  0.6187  0.6187  0.3297

 Free energy of the ion-electron system (eV)
  ---------------------------------------------------
  alpha Z        PSCENC =      2358.82458831
  Ewald energy   TEWEN  =    -62500.01989053
  -Hartree energ DENC   =    -42934.36545065
  -exchange      EXHF   =         0.00000000
  -V(xc)+E(xc)   XCENC  =      3286.60133995
  PAW double counting   =    112482.09399262  -116175.97489890
  entropy T*S    EENTRO =         0.00000000
  eigenvalues    EBANDS =    -10865.09209403
  atomic energy  EATOM  =    114020.06510763
  Solvation  Ediel_sol  =         0.00000000
  ---------------------------------------------------
  free energy    TOTEN  =      -327.86730560 eV

  energy without entropy =     -327.86730560  energy(sigma->0) =     -327.86730560


--------------------------------------------------------------------------------------------------------




--------------------------------------- Iteration      1(  13)  ---------------------------------------


    POTLOK:  cpu time    0.1420: real time    0.1428
    SETDIJ:  cpu time    0.0127: real time    0.0128
     EDDAV:  cpu time  109.8168: real time  110.6096
 BZINTS: Fermi energy:  4.959840;688.000000 electrons
         Band energy:***********;  BLOECHL correction:  0.000000
       DOS:  cpu time    0.0060: real time    0.0060
    CHARGE:  cpu time    1.4160: real time    1.4245
    MIXING:  cpu time    0.0016: real time    0.0016
    --------------------------------------------
      LOOP:  cpu time  111.3951: real time  112.1973

 eigenvalue-minimisations  : 18432
 total energy-change (2. order) :-0.1098885E-01  (-0.4449828E-02)
 number of electron     688.0000096 magnetization       0.0000000
 augmentation part      282.2267136 magnetization       0.0000000

 Broyden mixing:
  rms(total) = 0.34456E-01    rms(broyden)= 0.34453E-01
  rms(prec ) = 0.36612E-01
  weight for this iteration     100.00

 eigenvalues of (default mixing * dielectric matrix)
  average eigenvalue GAMMA=   1.1329
  2.3209  2.3209  1.2981  0.8932  0.6774  0.6117  0.6117  0.3297

 Free energy of the ion-electron system (eV)
  ---------------------------------------------------
  alpha Z        PSCENC =      2358.82458831
  Ewald energy   TEWEN  =    -62500.01989053
  -Hartree energ DENC   =    -42933.05294108
  -exchange      EXHF   =         0.00000000
  -V(xc)+E(xc)   XCENC  =      3286.55343041
  PAW double counting   =    112320.61876274  -116014.17251100
  entropy T*S    EENTRO =         0.00000000
  eigenvalues    EBANDS =    -10866.69484092
  atomic energy  EATOM  =    114020.06510763
  Solvation  Ediel_sol  =         0.00000000
  ---------------------------------------------------
  free energy    TOTEN  =      -327.87829445 eV

  energy without entropy =     -327.87829445  energy(sigma->0) =     -327.87829445


--------------------------------------------------------------------------------------------------------




--------------------------------------- Iteration      1(  14)  ---------------------------------------


    POTLOK:  cpu time    0.1393: real time    0.1401
    SETDIJ:  cpu time    0.0129: real time    0.0130
     EDDAV:  cpu time  162.2274: real time  163.3170
 BZINTS: Fermi energy:  4.960276;688.000000 electrons
         Band energy:***********;  BLOECHL correction:  0.000000
       DOS:  cpu time    0.0060: real time    0.0060
    CHARGE:  cpu time    1.4168: real time    1.4257
    MIXING:  cpu time    0.0017: real time    0.0017
    --------------------------------------------
      LOOP:  cpu time  163.8041: real time  164.9034

 eigenvalue-minimisations  : 22528
 total energy-change (2. order) :-0.3438086E-02  (-0.7972452E-03)
 number of electron     688.0000096 magnetization       0.0000000
 augmentation part      282.2253191 magnetization       0.0000000

 Broyden mixing:
  rms(total) = 0.21273E-01    rms(broyden)= 0.21272E-01
  rms(prec ) = 0.22294E-01
  weight for this iteration     100.00

 eigenvalues of (default mixing * dielectric matrix)
  average eigenvalue GAMMA=   1.1712
  2.4056  2.4056  1.5469  1.2562  0.3297  0.6127  0.6127  0.7342  0.6374

 Free energy of the ion-electron system (eV)
  ---------------------------------------------------
  alpha Z        PSCENC =      2358.82458831
  Ewald energy   TEWEN  =    -62500.01989053
  -Hartree energ DENC   =    -42933.68649838
  -exchange      EXHF   =         0.00000000
  -V(xc)+E(xc)   XCENC  =      3286.57942592
  PAW double counting   =    112288.01539180  -115981.86129798
  entropy T*S    EENTRO =         0.00000000
  eigenvalues    EBANDS =    -10865.79855931
  atomic energy  EATOM  =    114020.06510763
  Solvation  Ediel_sol  =         0.00000000
  ---------------------------------------------------
  free energy    TOTEN  =      -327.88173253 eV

  energy without entropy =     -327.88173253  energy(sigma->0) =     -327.88173253


--------------------------------------------------------------------------------------------------------




--------------------------------------- Iteration      1(  15)  ---------------------------------------


    POTLOK:  cpu time    0.1371: real time    0.1408
    SETDIJ:  cpu time    0.0130: real time    0.0131
     EDDAV:  cpu time  136.1173: real time  137.0737
 BZINTS: Fermi energy:  4.960588;688.000000 electrons
         Band energy:***********;  BLOECHL correction:  0.000000
       DOS:  cpu time    0.0060: real time    0.0060
    CHARGE:  cpu time    1.6981: real time    1.7075
    MIXING:  cpu time    0.0021: real time    0.0021
    --------------------------------------------
      LOOP:  cpu time  137.9735: real time  138.9432

 eigenvalue-minimisations  : 21504
 total energy-change (2. order) :-0.1862195E-02  (-0.4296475E-03)
 number of electron     688.0000096 magnetization       0.0000000
 augmentation part      282.2197048 magnetization       0.0000000

 Broyden mixing:
  rms(total) = 0.12037E-01    rms(broyden)= 0.12036E-01
  rms(prec ) = 0.12730E-01
  weight for this iteration     100.00

 eigenvalues of (default mixing * dielectric matrix)
  average eigenvalue GAMMA=   1.2174
  2.9116  2.2227  1.8989  1.1355  1.1355  0.3297  0.6096  0.6096  0.6980  0.6232

 Free energy of the ion-electron system (eV)
  ---------------------------------------------------
  alpha Z        PSCENC =      2358.82458831
  Ewald energy   TEWEN  =    -62500.01989053
  -Hartree energ DENC   =    -42933.98621016
  -exchange      EXHF   =         0.00000000
  -V(xc)+E(xc)   XCENC  =      3286.58109677
  PAW double counting   =    112275.12770959  -115968.92812871
  entropy T*S    EENTRO =         0.00000000
  eigenvalues    EBANDS =    -10865.54786762
  atomic energy  EATOM  =    114020.06510763
  Solvation  Ediel_sol  =         0.00000000
  ---------------------------------------------------
  free energy    TOTEN  =      -327.88359473 eV

  energy without entropy =     -327.88359473  energy(sigma->0) =     -327.88359473


--------------------------------------------------------------------------------------------------------




--------------------------------------- Iteration      1(  16)  ---------------------------------------


    POTLOK:  cpu time    0.1512: real time    0.1547
    SETDIJ:  cpu time    0.0166: real time    0.0167
     EDDAV:  cpu time  157.6448: real time  158.7059
 BZINTS: Fermi energy:  4.960647;688.000000 electrons
         Band energy:***********;  BLOECHL correction:  0.000000
       DOS:  cpu time    0.0060: real time    0.0060
    CHARGE:  cpu time    1.4161: real time    1.4251
    MIXING:  cpu time    0.0018: real time    0.0026
    --------------------------------------------
      LOOP:  cpu time  159.2366: real time  160.3110

 eigenvalue-minimisations  : 22016
 total energy-change (2. order) :-0.8970156E-03  (-0.3014635E-03)
 number of electron     688.0000096 magnetization       0.0000000
 augmentation part      282.2268784 magnetization       0.0000000

 Broyden mixing:
  rms(total) = 0.75665E-02    rms(broyden)= 0.75652E-02
  rms(prec ) = 0.82054E-02
  weight for this iteration     100.00

 eigenvalues of (default mixing * dielectric matrix)
  average eigenvalue GAMMA=   1.2792
  3.3909  2.1405  2.1405  1.3547  1.3547  0.3297  0.8194  0.6077  0.6077  0.7066
  0.6189

 Free energy of the ion-electron system (eV)
  ---------------------------------------------------
  alpha Z        PSCENC =      2358.82458831
  Ewald energy   TEWEN  =    -62500.01989053
  -Hartree energ DENC   =    -42933.77084758
  -exchange      EXHF   =         0.00000000
  -V(xc)+E(xc)   XCENC  =      3286.58089115
  PAW double counting   =    112266.38213836  -115960.12434207
  entropy T*S    EENTRO =         0.00000000
  eigenvalues    EBANDS =    -10865.82213701
  atomic energy  EATOM  =    114020.06510763
  Solvation  Ediel_sol  =         0.00000000
  ---------------------------------------------------
  free energy    TOTEN  =      -327.88449175 eV

  energy without entropy =     -327.88449175  energy(sigma->0) =     -327.88449175


--------------------------------------------------------------------------------------------------------




--------------------------------------- Iteration      1(  17)  ---------------------------------------


    POTLOK:  cpu time    0.1409: real time    0.1419
    SETDIJ:  cpu time    0.0130: real time    0.0130
     EDDAV:  cpu time   99.5402: real time  100.2716
 BZINTS: Fermi energy:  4.960485;688.000000 electrons
         Band energy:***********;  BLOECHL correction:  0.000000
       DOS:  cpu time    0.0059: real time    0.0060
    CHARGE:  cpu time    1.4271: real time    1.4362
    MIXING:  cpu time    0.0018: real time    0.0018
    --------------------------------------------
      LOOP:  cpu time  101.1290: real time  101.8705

 eigenvalue-minimisations  : 17408
 total energy-change (2. order) :-0.3004226E-03  (-0.1572806E-03)
 number of electron     688.0000096 magnetization       0.0000000
 augmentation part      282.2236316 magnetization       0.0000000

 Broyden mixing:
  rms(total) = 0.38740E-02    rms(broyden)= 0.38726E-02
  rms(prec ) = 0.41347E-02
  weight for this iteration     100.00

 eigenvalues of (default mixing * dielectric matrix)
  average eigenvalue GAMMA=   1.3650
  4.1175  2.3486  2.3486  1.4756  1.4756  1.0303  0.3297  0.6080  0.6080  0.7279
  0.7009  0.6087

 Free energy of the ion-electron system (eV)
  ---------------------------------------------------
  alpha Z        PSCENC =      2358.82458831
  Ewald energy   TEWEN  =    -62500.01989053
  -Hartree energ DENC   =    -42933.83329327
  -exchange      EXHF   =         0.00000000
  -V(xc)+E(xc)   XCENC  =      3286.58065381
  PAW double counting   =    112275.18105958  -115968.91929949
  entropy T*S    EENTRO =         0.00000000
  eigenvalues    EBANDS =    -10865.76371820
  atomic energy  EATOM  =    114020.06510763
  Solvation  Ediel_sol  =         0.00000000
  ---------------------------------------------------
  free energy    TOTEN  =      -327.88479217 eV

  energy without entropy =     -327.88479217  energy(sigma->0) =     -327.88479217


--------------------------------------------------------------------------------------------------------




--------------------------------------- Iteration      1(  18)  ---------------------------------------


    POTLOK:  cpu time    0.1395: real time    0.1403
    SETDIJ:  cpu time    0.0130: real time    0.0130
     EDDAV:  cpu time  161.9918: real time  163.0728
 BZINTS: Fermi energy:  4.960447;688.000000 electrons
         Band energy:***********;  BLOECHL correction:  0.000000
       DOS:  cpu time    0.0059: real time    0.0060
    CHARGE:  cpu time    1.4090: real time    1.4179
    MIXING:  cpu time    0.0018: real time    0.0018
    --------------------------------------------
      LOOP:  cpu time  163.5611: real time  164.6519

 eigenvalue-minimisations  : 22528
 total energy-change (2. order) :-0.6286336E-04  (-0.4491571E-04)
 number of electron     688.0000096 magnetization       0.0000000
 augmentation part      282.2244702 magnetization       0.0000000

 Broyden mixing:
  rms(total) = 0.19354E-02    rms(broyden)= 0.19344E-02
  rms(prec ) = 0.21425E-02
  weight for this iteration     100.00

 eigenvalues of (default mixing * dielectric matrix)
  average eigenvalue GAMMA=   1.3513
  4.2203  2.4173  2.4173  1.7475  1.1925  1.1925  0.3297  0.8530  0.6064  0.6064
  0.7316  0.6477  0.6045

 Free energy of the ion-electron system (eV)
  ---------------------------------------------------
  alpha Z        PSCENC =      2358.82458831
  Ewald energy   TEWEN  =    -62500.01989053
  -Hartree energ DENC   =    -42933.77535815
  -exchange      EXHF   =         0.00000000
  -V(xc)+E(xc)   XCENC  =      3286.57830808
  PAW double counting   =    112283.07887578  -115976.79631727
  entropy T*S    EENTRO =         0.00000000
  eigenvalues    EBANDS =    -10865.84016887
  atomic energy  EATOM  =    114020.06510763
  Solvation  Ediel_sol  =         0.00000000
  ---------------------------------------------------
  free energy    TOTEN  =      -327.88485503 eV

  energy without entropy =     -327.88485503  energy(sigma->0) =     -327.88485503


--------------------------------------------------------------------------------------------------------




--------------------------------------- Iteration      1(  19)  ---------------------------------------


    POTLOK:  cpu time    0.1394: real time    0.1407
    SETDIJ:  cpu time    0.0128: real time    0.0128
     EDDAV:  cpu time   97.2274: real time   97.9426
 BZINTS: Fermi energy:  4.960489;688.000000 electrons
         Band energy:***********;  BLOECHL correction:  0.000000
       DOS:  cpu time    0.0060: real time    0.0061
    CHARGE:  cpu time    1.4146: real time    1.4230
    MIXING:  cpu time    0.0020: real time    0.0021
    --------------------------------------------
      LOOP:  cpu time   98.8022: real time   99.5272

 eigenvalue-minimisations  : 17152
 total energy-change (2. order) :-0.4259709E-05  (-0.1905757E-05)
 number of electron     688.0000096 magnetization       0.0000000
 augmentation part      282.2243226 magnetization       0.0000000

 Broyden mixing:
[...]
   -.414E+02 0.177E+02 -.994E+00   0.422E+02 -.178E+02 0.100E+01   -.856E+00 0.103E+00 -.108E-01   0.251E-05 0.864E-06 -.123E-05
   -.414E+02 0.177E+02 -.994E+00   0.422E+02 -.178E+02 0.100E+01   -.856E+00 0.103E+00 -.108E-01   0.249E-05 0.864E-06 -.123E-05
   -.414E+02 0.177E+02 -.994E+00   0.422E+02 -.178E+02 0.100E+01   -.856E+00 0.103E+00 -.108E-01   0.251E-05 0.839E-06 -.123E-05
   -.414E+02 0.177E+02 -.994E+00   0.422E+02 -.178E+02 0.100E+01   -.856E+00 0.103E+00 -.108E-01   0.249E-05 0.839E-06 -.123E-05
   0.414E+02 0.177E+02 0.994E+00   -.422E+02 -.178E+02 -.100E+01   0.856E+00 0.103E+00 0.108E-01   -.250E-05 0.852E-06 0.123E-05
   0.414E+02 0.177E+02 0.994E+00   -.422E+02 -.178E+02 -.100E+01   0.856E+00 0.103E+00 0.108E-01   -.250E-05 0.852E-06 0.123E-05
   0.414E+02 0.177E+02 0.994E+00   -.422E+02 -.178E+02 -.100E+01   0.856E+00 0.103E+00 0.108E-01   -.250E-05 0.852E-06 0.123E-05
   0.414E+02 0.177E+02 0.994E+00   -.422E+02 -.178E+02 -.100E+01   0.856E+00 0.103E+00 0.108E-01   -.250E-05 0.852E-06 0.123E-05
   0.896E-08 -.310E+02 -.332E-07   -.711E-13 0.317E+02 -.178E-13   0.378E-24 -.778E+00 0.310E-24   -.109E-10 0.336E-05 -.726E-09
   0.896E-08 -.310E+02 -.332E-07   -.782E-13 0.317E+02 0.426E-13   -.442E-24 -.778E+00 0.258E-24   0.887E-11 0.336E-05 0.724E-09
   0.896E-08 -.310E+02 -.332E-07   -.853E-13 0.317E+02 0.426E-13   -.598E-25 -.778E+00 0.103E-24   -.110E-10 0.334E-05 -.726E-09
   0.896E-08 -.310E+02 -.332E-07   -.639E-13 0.317E+02 0.178E-13   0.462E-24 -.778E+00 0.517E-25   0.893E-11 0.334E-05 0.723E-09
   0.134E-09 0.545E+02 0.200E-06   -.533E-14 -.555E+02 -.533E-13   0.727E-25 0.950E+00 -.258E-24   0.119E-07 0.270E-05 -.278E-09
   0.133E-09 0.545E+02 0.200E-06   0.107E-13 -.555E+02 -.817E-13   -.485E-26 0.950E+00 0.155E-24   -.119E-07 0.270E-05 0.275E-09
   0.134E-09 0.545E+02 0.200E-06   -.213E-13 -.555E+02 -.568E-13   -.164E-24 0.950E+00 -.162E-25   0.119E-07 0.270E-05 -.278E-09
   0.133E-09 0.545E+02 0.200E-06   0.000E+00 -.555E+02 -.853E-13   0.372E-25 0.950E+00 0.414E-24   -.119E-07 0.270E-05 0.275E-09
   0.267E+01 -.160E+02 0.242E+01   -.264E+01 0.154E+02 -.247E+01   -.246E-01 0.636E+00 0.428E-01   -.306E-05 0.497E-04 0.358E-05
   0.267E+01 -.160E+02 0.242E+01   -.264E+01 0.154E+02 -.247E+01   -.246E-01 0.636E+00 0.428E-01   -.311E-05 0.497E-04 0.358E-05
   0.267E+01 -.160E+02 0.242E+01   -.264E+01 0.154E+02 -.247E+01   -.246E-01 0.636E+00 0.428E-01   -.306E-05 0.497E-04 0.358E-05
   0.267E+01 -.160E+02 0.242E+01   -.264E+01 0.154E+02 -.247E+01   -.246E-01 0.636E+00 0.428E-01   -.311E-05 0.497E-04 0.358E-05
   -.267E+01 -.160E+02 -.242E+01   0.264E+01 0.154E+02 0.247E+01   0.246E-01 0.636E+00 -.428E-01   0.311E-05 0.497E-04 -.358E-05
   -.267E+01 -.160E+02 -.242E+01   0.264E+01 0.154E+02 0.247E+01   0.246E-01 0.636E+00 -.428E-01   0.306E-05 0.497E-04 -.358E-05
   -.267E+01 -.160E+02 -.242E+01   0.264E+01 0.154E+02 0.247E+01   0.246E-01 0.636E+00 -.428E-01   0.311E-05 0.497E-04 -.358E-05
   -.267E+01 -.160E+02 -.242E+01   0.264E+01 0.154E+02 0.247E+01   0.246E-01 0.636E+00 -.428E-01   0.306E-05 0.497E-04 -.358E-05
   0.267E+01 -.160E+02 0.242E+01   -.264E+01 0.154E+02 -.247E+01   -.246E-01 0.636E+00 0.428E-01   -.306E-05 0.497E-04 0.358E-05
   0.267E+01 -.160E+02 0.242E+01   -.264E+01 0.154E+02 -.247E+01   -.246E-01 0.636E+00 0.428E-01   -.311E-05 0.497E-04 0.358E-05
   0.267E+01 -.160E+02 0.242E+01   -.264E+01 0.154E+02 -.247E+01   -.246E-01 0.636E+00 0.428E-01   -.306E-05 0.497E-04 0.358E-05
   0.267E+01 -.160E+02 0.242E+01   -.264E+01 0.154E+02 -.247E+01   -.246E-01 0.636E+00 0.428E-01   -.311E-05 0.497E-04 0.358E-05
   -.267E+01 -.160E+02 -.242E+01   0.264E+01 0.154E+02 0.247E+01   0.246E-01 0.636E+00 -.428E-01   0.311E-05 0.497E-04 -.358E-05
   -.267E+01 -.160E+02 -.242E+01   0.264E+01 0.154E+02 0.247E+01   0.246E-01 0.636E+00 -.428E-01   0.306E-05 0.497E-04 -.358E-05
   -.267E+01 -.160E+02 -.242E+01   0.264E+01 0.154E+02 0.247E+01   0.246E-01 0.636E+00 -.428E-01   0.311E-05 0.497E-04 -.359E-05
   -.267E+01 -.160E+02 -.242E+01   0.264E+01 0.154E+02 0.247E+01   0.246E-01 0.636E+00 -.428E-01   0.306E-05 0.497E-04 -.358E-05
   -.429E+01 -.151E+02 0.269E+01   0.423E+01 0.143E+02 -.276E+01   0.702E-01 0.829E+00 0.428E-01   0.978E-05 0.176E-04 0.848E-05
   -.429E+01 -.151E+02 0.269E+01   0.423E+01 0.143E+02 -.276E+01   0.702E-01 0.829E+00 0.428E-01   0.974E-05 0.176E-04 0.848E-05
   -.429E+01 -.151E+02 0.269E+01   0.423E+01 0.143E+02 -.276E+01   0.702E-01 0.829E+00 0.428E-01   0.978E-05 0.176E-04 0.848E-05
   -.429E+01 -.151E+02 0.269E+01   0.423E+01 0.143E+02 -.276E+01   0.702E-01 0.829E+00 0.428E-01   0.974E-05 0.176E-04 0.848E-05
   0.429E+01 -.151E+02 -.269E+01   -.423E+01 0.143E+02 0.276E+01   -.702E-01 0.829E+00 -.428E-01   -.974E-05 0.176E-04 -.848E-05
   0.429E+01 -.151E+02 -.269E+01   -.423E+01 0.143E+02 0.276E+01   -.702E-01 0.829E+00 -.428E-01   -.978E-05 0.176E-04 -.848E-05
   0.429E+01 -.151E+02 -.269E+01   -.423E+01 0.143E+02 0.276E+01   -.702E-01 0.829E+00 -.428E-01   -.974E-05 0.176E-04 -.848E-05
   0.429E+01 -.151E+02 -.269E+01   -.423E+01 0.143E+02 0.276E+01   -.702E-01 0.829E+00 -.428E-01   -.978E-05 0.176E-04 -.848E-05
   -.429E+01 -.151E+02 0.269E+01   0.423E+01 0.143E+02 -.276E+01   0.702E-01 0.829E+00 0.428E-01   0.978E-05 0.176E-04 0.848E-05
   -.429E+01 -.151E+02 0.269E+01   0.423E+01 0.143E+02 -.276E+01   0.702E-01 0.829E+00 0.428E-01   0.974E-05 0.176E-04 0.849E-05
   -.429E+01 -.151E+02 0.269E+01   0.423E+01 0.143E+02 -.276E+01   0.702E-01 0.829E+00 0.428E-01   0.978E-05 0.176E-04 0.848E-05
   -.429E+01 -.151E+02 0.269E+01   0.423E+01 0.143E+02 -.276E+01   0.702E-01 0.829E+00 0.428E-01   0.974E-05 0.176E-04 0.848E-05
   0.429E+01 -.151E+02 -.269E+01   -.423E+01 0.143E+02 0.276E+01   -.702E-01 0.829E+00 -.428E-01   -.974E-05 0.176E-04 -.848E-05
   0.429E+01 -.151E+02 -.269E+01   -.423E+01 0.143E+02 0.276E+01   -.702E-01 0.829E+00 -.428E-01   -.979E-05 0.176E-04 -.848E-05
   0.429E+01 -.151E+02 -.269E+01   -.423E+01 0.143E+02 0.276E+01   -.702E-01 0.829E+00 -.428E-01   -.974E-05 0.176E-04 -.848E-05
   0.429E+01 -.151E+02 -.269E+01   -.423E+01 0.143E+02 0.276E+01   -.702E-01 0.829E+00 -.428E-01   -.979E-05 0.176E-04 -.848E-05
 -----------------------------------------------------------------------------------------------
   0.297E-06 -.265E+02 0.622E-04   0.728E-12 -.409E-12 0.116E-11   -.916E-15 0.265E+02 0.000E+00   0.177E-11 0.114E-02 0.576E-11
 
 
 POSITION                                       TOTAL-FORCE (eV/Angst)
 -----------------------------------------------------------------------------------
      1.35816      1.28287      1.33602         0.001493     -0.013524      0.002715
      6.61126      1.28287      1.45978         0.001493     -0.013524      0.002715
      1.35816      6.54472      1.33602         0.001493     -0.013524      0.002715
      6.61126      6.54472      1.45978         0.001493     -0.013524      0.002715
      3.95621      3.91380      1.38804        -0.001493     -0.013524     -0.002715
      9.20931      3.91380      1.51180        -0.001493     -0.013524     -0.002715
      3.95621      9.17565      1.38804        -0.001493     -0.013524     -0.002715
      9.20931      9.17565      1.51180        -0.001493     -0.013524     -0.002715
      1.52769      3.91791      9.13201         0.000000     -0.009272      0.000000
      6.78080      3.91791      9.25577         0.000000     -0.009272      0.000000
      1.52769      9.17976      9.13201         0.000000     -0.009272      0.000000
      6.78080      9.17976      9.25577        -0.000000     -0.009272      0.000000
      4.15425      1.30642      9.19389         0.000000     -0.005480      0.000000
      9.40735      1.30642      9.31765         0.000000     -0.005480      0.000000
      4.15425      6.56828      9.19389        -0.000000     -0.005480      0.000000
      9.40735      6.56828      9.31765         0.000000     -0.005480      0.000000
      1.45218      1.28287      6.52678        -0.001493     -0.013524     -0.002715
      6.70529      1.28287      6.65054        -0.001493     -0.013524     -0.002715
      1.45218      6.54472      6.52678        -0.001493     -0.013524     -0.002715
      6.70529      6.54472      6.65054        -0.001493     -0.013524     -0.002715
      4.10723      3.91380      6.59852         0.001493     -0.013524      0.002715
      9.36034      3.91380      6.72228         0.001493     -0.013524      0.002715
      4.10723      9.17565      6.59852         0.001493     -0.013524      0.002715
      9.36034      9.17565      6.72228         0.001493     -0.013524      0.002715
      4.03172      1.28699      3.99328         0.000000     -0.009272      0.000000
      9.28483      1.28699      4.11704        -0.000000     -0.009272      0.000000
      4.03172      6.54884      3.99328         0.000000     -0.009272      0.000000
      9.28483      6.54884      4.11704         0.000000     -0.009272      0.000000
      1.40517      3.93735      3.93140        -0.000000     -0.005480      0.000000
      6.65827      3.93735      4.05516        -0.000000     -0.005480      0.000000
      1.40517      9.19920      3.93140         0.000000     -0.005480      0.000000
      6.65827      9.19920      4.05516         0.000000     -0.005480      0.000000
     10.61544      0.02579      5.44793         0.006392      0.010783     -0.011725
      5.36234      0.02579      5.32417         0.006392      0.010783     -0.011725
     10.61544      5.28765      5.44793         0.006392      0.010783     -0.011725
      5.36234      5.28765      5.32417         0.006392      0.010783     -0.011725
      2.70110      0.02579      2.66239        -0.006392      0.010783      0.011725
      7.95421      0.02579      2.78615        -0.006392      0.010783      0.011725
      2.70110      5.28765      2.66239        -0.006392      0.010783      0.011725
      7.95421      5.28765      2.78615        -0.006392      0.010783      0.011725
      2.61326      2.65672      0.06168         0.006392      0.010783     -0.011725
      7.86637      2.65672      0.18544         0.006392      0.010783     -0.011725
      2.61326      7.91857      0.06168         0.006392      0.010783     -0.011725
      7.86637      7.91857      0.18544         0.006392      0.010783     -0.011725
      0.19707      2.65672      7.80112        -0.006392      0.010783      0.011725
      5.45018      2.65672      7.92488        -0.006392      0.010783      0.011725
      0.19707      7.91857      7.80112        -0.006392      0.010783      0.011725
      5.45018      7.91857      7.92488        -0.006392      0.010783      0.011725
     10.49804      0.02556      0.25282         0.009707      0.010117     -0.026467
      5.24493      0.02556      0.12906         0.009707      0.010117     -0.026467
     10.49804      5.28741      0.25282         0.009707      0.010117     -0.026467
      5.24493      5.28741      0.12906         0.009707      0.010117     -0.026467
      2.81851      0.02556      7.85750        -0.009707      0.010117      0.026467
      8.07161      0.02556      7.98126        -0.009707      0.010117      0.026467
      2.81851      5.28741      7.85750        -0.009707      0.010117      0.026467
      8.07161      5.28741      7.98126        -0.009707      0.010117      0.026467
      2.74091      2.65649      5.26779         0.009707      0.010117     -0.026467
      7.99401      2.65649      5.39155         0.009707      0.010117     -0.026467
      2.74091      7.91834      5.26779         0.009707      0.010117     -0.026467
      7.99401      7.91834      5.39155         0.009707      0.010117     -0.026467
      0.06943      2.65649      2.59501        -0.009707      0.010117      0.026467
      5.32254      2.65649      2.71877        -0.009707      0.010117      0.026467
      0.06943      7.91834      2.59501        -0.009707      0.010117      0.026467
      5.32254      7.91834      2.71877        -0.009707      0.010117      0.026467
 -----------------------------------------------------------------------------------
    total drift:                                0.000000     -0.000871      0.000062


--------------------------------------------------------------------------------------------------------



  FREE ENERGIE OF THE ION-ELECTRON SYSTEM (eV)
  ---------------------------------------------------
  free  energy   TOTEN  =      -327.88486276 eV

  energy  without entropy=     -327.88486276  energy(sigma->0) =     -327.88486276
 


--------------------------------------------------------------------------------------------------------


    POTLOK:  cpu time    0.1502: real time    0.1510


--------------------------------------------------------------------------------------------------------


 writing wavefunctions
     LOOP+:  cpu time 3806.1408: real time 3832.7557
    4ORBIT:  cpu time    0.0000: real time    0.0000
 


 total charge     
 
# of ion       s       p       d       tot
------------------------------------------
    1        1.314   2.410   0.000   3.724
    2        1.314   2.410   0.000   3.724
    3        1.314   2.410   0.000   3.724
    4        1.314   2.410   0.000   3.724
    5        1.314   2.410   0.000   3.724
    6        1.314   2.410   0.000   3.724
    7        1.314   2.410   0.000   3.724
    8        1.314   2.410   0.000   3.724
    9        1.315   2.407   0.000   3.721
   10        1.315   2.407   0.000   3.721
   11        1.315   2.407   0.000   3.721
   12        1.315   2.407   0.000   3.721
   13        1.313   2.412   0.000   3.724
   14        1.313   2.412   0.000   3.724
   15        1.313   2.412   0.000   3.724
   16        1.313   2.412   0.000   3.724
   17        1.314   2.410   0.000   3.724
   18        1.314   2.410   0.000   3.724
   19        1.314   2.410   0.000   3.724
   20        1.314   2.410   0.000   3.724
   21        1.314   2.410   0.000   3.724
   22        1.314   2.410   0.000   3.724
   23        1.314   2.410   0.000   3.724
   24        1.314   2.410   0.000   3.724
   25        1.315   2.407   0.000   3.721
   26        1.315   2.407   0.000   3.721
   27        1.315   2.407   0.000   3.721
   28        1.315   2.407   0.000   3.721
   29        1.313   2.412   0.000   3.724
   30        1.313   2.412   0.000   3.724
   31        1.313   2.412   0.000   3.724
   32        1.313   2.412   0.000   3.724
   33        0.259   6.202   8.917  15.378
   34        0.259   6.202   8.917  15.378
   35        0.259   6.202   8.917  15.378
   36        0.259   6.202   8.917  15.378
   37        0.259   6.202   8.917  15.378
   38        0.259   6.202   8.917  15.378
   39        0.259   6.202   8.917  15.378
   40        0.259   6.202   8.917  15.378
   41        0.259   6.202   8.917  15.378
   42        0.259   6.202   8.917  15.378
   43        0.259   6.202   8.917  15.378
   44        0.259   6.202   8.917  15.378
   45        0.259   6.202   8.917  15.378
   46        0.259   6.202   8.917  15.378
   47        0.259   6.202   8.917  15.378
   48        0.259   6.202   8.917  15.378
   49        0.350   6.351   5.821  12.522
   50        0.350   6.351   5.821  12.522
   51        0.350   6.351   5.821  12.522
   52        0.350   6.351   5.821  12.522
   53        0.350   6.351   5.821  12.522
   54        0.350   6.351   5.821  12.522
   55        0.350   6.351   5.821  12.522
   56        0.350   6.351   5.821  12.522
   57        0.350   6.351   5.821  12.522
   58        0.350   6.351   5.821  12.522
   59        0.350   6.351   5.821  12.522
   60        0.350   6.351   5.821  12.522
   61        0.350   6.351   5.821  12.522
   62        0.350   6.351   5.821  12.522
   63        0.350   6.351   5.821  12.522
   64        0.350   6.351   5.821  12.522
--------------------------------------------------
tot         51.790 277.956 235.801 565.547
 


 magnetization (x)
 
# of ion       s       p       d       tot
------------------------------------------
    1       -0.000  -0.011   0.000  -0.011
    2       -0.000  -0.011   0.000  -0.011
    3       -0.000  -0.011   0.000  -0.011
    4       -0.000  -0.011   0.000  -0.011
    5        0.000   0.011   0.000   0.011
    6        0.000   0.011   0.000   0.011
    7        0.000   0.011   0.000   0.011
    8        0.000   0.011   0.000   0.011
    9       -0.000   0.000   0.000   0.000
   10        0.000  -0.000   0.000  -0.000
   11       -0.000   0.000   0.000   0.000
   12        0.000  -0.000   0.000  -0.000
   13       -0.000   0.000   0.000   0.000
   14       -0.000   0.000   0.000   0.000
   15       -0.000   0.000   0.000   0.000
   16       -0.000   0.000   0.000   0.000
   17        0.000   0.011   0.000   0.011
   18        0.000   0.011   0.000   0.011
   19        0.000   0.011   0.000   0.011
   20        0.000   0.011   0.000   0.011
   21       -0.000  -0.011   0.000  -0.011
   22       -0.000  -0.011   0.000  -0.011
   23       -0.000  -0.011   0.000  -0.011
   24       -0.000  -0.011   0.000  -0.011
   25        0.000  -0.000   0.000  -0.000
   26       -0.000  -0.000   0.000  -0.000
   27        0.000  -0.000   0.000  -0.000
   28        0.000  -0.000   0.000  -0.000
   29        0.000  -0.000   0.000  -0.000
   30       -0.000   0.000   0.000   0.000
   31       -0.000  -0.000   0.000  -0.000
   32       -0.000   0.000   0.000   0.000
   33        0.000   0.001  -0.001  -0.001
   34        0.000   0.001  -0.001  -0.001
   35        0.000   0.001  -0.001  -0.001
   36        0.000   0.001  -0.001  -0.001
   37       -0.000  -0.001   0.001   0.001
   38       -0.000  -0.001   0.001   0.001
   39       -0.000  -0.001   0.001   0.001
   40       -0.000  -0.001   0.001   0.001
   41        0.000   0.001  -0.001  -0.001
   42        0.000   0.001  -0.001  -0.001
   43        0.000   0.001  -0.001  -0.001
   44        0.000   0.001  -0.001  -0.001
   45       -0.000  -0.001   0.001   0.001
   46       -0.000  -0.001   0.001   0.001
   47       -0.000  -0.001   0.001   0.001
   48       -0.000  -0.001   0.001   0.001
   49        0.020   0.054   3.669   3.743
   50        0.020   0.054   3.669   3.743
   51        0.020   0.054   3.669   3.743
   52        0.020   0.054   3.669   3.743
   53       -0.020  -0.054  -3.669  -3.743
   54       -0.020  -0.054  -3.669  -3.743
   55       -0.020  -0.054  -3.669  -3.743
   56       -0.020  -0.054  -3.669  -3.743
   57        0.020   0.054   3.669   3.743
   58        0.020   0.054   3.669   3.743
   59        0.020   0.054   3.669   3.743
   60        0.020   0.054   3.669   3.743
   61       -0.020  -0.054  -3.669  -3.743
   62       -0.020  -0.054  -3.669  -3.743
   63       -0.020  -0.054  -3.669  -3.743
   64       -0.020  -0.054  -3.669  -3.743
--------------------------------------------------
tot          0.000  -0.000  -0.000  -0.000
 
 BZINTS: Fermi energy:  4.960491;688.000000 electrons
         Band energy:***********;  BLOECHL correction:  0.000000

 total amount of memory used by VASP MPI-rank0   348353. kBytes
=======================================================================

   base      :      30000. kBytes
   nonl-proj :     216760. kBytes
   fftplans  :       4588. kBytes
   grid      :      69719. kBytes
   one-center:       1990. kBytes
   wavefun   :      25296. kBytes
 
  
  
 General timing and accounting informations for this job:
 ========================================================
  
                  Total CPU time used (sec):     3865.418
                            User time (sec):     3853.675
                          System time (sec):       11.742
                         Elapsed time (sec):     3893.534
  
                   Maximum memory used (kb):      723988.
                   Average memory used (kb):           0.
  
                          Minor page faults:       658120
                          Major page faults:         5902
                 Voluntary context switches:         7102
