       N       E                     dE             d eps       ncg     rms          rms(c)
DAV:   1     0.620246854791E+04    0.62025E+04   -0.50406E+05 61440   0.194E+03
DAV:   2    -0.885853526751E+02   -0.62911E+04   -0.61601E+04 65024   0.439E+02
DAV:   3    -0.372388243695E+03   -0.28380E+03   -0.28249E+03 88064   0.102E+02
DAV:   4    -0.376338345604E+03   -0.39501E+01   -0.39499E+01 67840   0.123E+01
DAV:   5    -0.376442637886E+03   -0.10429E+00   -0.10429E+00 85760   0.202E+00    0.750E+01
DAV:   6    -0.334872098574E+03    0.41571E+02   -0.59006E+02 61440   0.812E+01    0.999E+01
DAV:   7    -0.329899104962E+03    0.49730E+01   -0.10831E+02 61440   0.272E+01    0.436E+01
DAV:   8    -0.329644935125E+03    0.25417E+00   -0.33324E+01 82176   0.202E+01    0.314E+01
DAV:   9    -0.331582105162E+03   -0.19372E+01   -0.92683E+01 75520   0.234E+01    0.231E+01
DAV:  10    -0.327998769413E+03    0.35833E+01   -0.21644E+01 81920   0.157E+01    0.286E+00
DAV:  11    -0.328124571111E+03   -0.12580E+00   -0.10625E+00 79616   0.167E+00    0.352E+00
DAV:  12    -0.328112243039E+03    0.12328E-01   -0.47185E-01 81920   0.178E+00    0.135E+00
DAV:  13    -0.328116795090E+03   -0.45521E-02   -0.50604E-02 76800   0.435E-01    0.945E-01
DAV:  14    -0.328126166104E+03   -0.93710E-02   -0.46458E-02 88320   0.353E-01    0.391E-01
DAV:  15    -0.328125777730E+03    0.38837E-03   -0.55570E-03 67072   0.189E-01    0.160E-01
DAV:  16    -0.328125881853E+03   -0.10412E-03   -0.41889E-04 88064   0.302E-02    0.120E-01
DAV:  17    -0.328126221937E+03   -0.34008E-03   -0.12796E-03 70144   0.530E-02    0.892E-02
DAV:  18    -0.328126264246E+03   -0.42308E-04   -0.12133E-04 80640   0.196E-02    0.466E-02
DAV:  19    -0.328126268519E+03   -0.42735E-05   -0.29752E-05 84224   0.757E-03    0.261E-02
DAV:  20    -0.328126269571E+03   -0.10517E-05   -0.39287E-06 74240   0.244E-03    0.226E-02
DAV:  21    -0.328126267778E+03    0.17925E-05   -0.23743E-05 87296   0.918E-03    0.109E-02
DAV:  22    -0.328126267982E+03   -0.20346E-06   -0.24996E-06 69120   0.450E-03    0.854E-03
DAV:  23    -0.328126268139E+03   -0.15707E-06   -0.29632E-07 79872   0.106E-03    0.663E-03
DAV:  24    -0.328126267967E+03    0.17131E-06   -0.14075E-07 91392   0.863E-04    0.291E-03
DAV:  25    -0.328126267934E+03    0.33091E-07   -0.18483E-07 88576   0.894E-04    0.636E-04
DAV:  26    -0.328126267939E+03   -0.46857E-08   -0.13359E-08 63744   0.185E-04
   1 F= -.32812627E+03 E0= -.32812627E+03  d E =0.000000E+00  mag=     0.0000
