 vasp.5.4.4.18Apr17-6-g9f103f2a35 (build Oct 30 2023 17:30:16) complex          
  
 executed on             LinuxIFC date 2024.04.02  20:06:54
 running on  256 total cores
 distrk:  each k-point on  256 cores,    1 groups
 distr:  one band on NCORES_PER_BAND=   1 cores,  256 groups


--------------------------------------------------------------------------------------------------------


 INCAR:
 POTCAR:    PAW_PBE S 06Sep2000                   
 POTCAR:     PAW_PBE Cu_pv 06Sep2000              
 POTCAR:     PAW_PBE Fe_pv 02Aug2007              

 ----------------------------------------------------------------------------- 
|                                                                             |
|           W    W    AA    RRRRR   N    N  II  N    N   GGGG   !!!           |
|           W    W   A  A   R    R  NN   N  II  NN   N  G    G  !!!           |
|           W    W  A    A  R    R  N N  N  II  N N  N  G       !!!           |
|           W WW W  AAAAAA  RRRRR   N  N N  II  N  N N  G  GGG   !            |
|           WW  WW  A    A  R   R   N   NN  II  N   NN  G    G                |
|           W    W  A    A  R    R  N    N  II  N    N   GGGG   !!!           |
|                                                                             |
|      For optimal performance we recommend to set                            |
|        NCORE= 4 - approx SQRT( number of cores)                             |
|      NCORE specifies how many cores store one orbital (NPAR=cpu/NCORE).     |
|      This setting can  greatly improve the performance of VASP for DFT.     |
|      The default,   NCORE=1            might be grossly inefficient         |
|      on modern multi-core architectures or massively parallel machines.     |
|      Do your own testing !!!!                                               |
|      Unfortunately you need to use the default for GW and RPA calculations. |
|      (for HF NCORE is supported but not extensively tested yet)             |
|                                                                             |
 ----------------------------------------------------------------------------- 

 POTCAR:    PAW_PBE S 06Sep2000                   
   SHA256 =  0fc7481fb0695f01bdc6462160264c5c84044ae9ec85a907d398b887a2bc3132 S/
   COPYR  = (c) Copyright 06Sep2000 Georg Kresse                                
   COPYR  = This file is part of the software VASP. Any use, copying, and all ot
   COPYR  = If you do not have a valid VASP license, you may not use, copy or di
   VRHFIN =S : s2p4                                                             
   LEXCH  = PE                                                                  
   EATOM  =   276.8230 eV,   20.3459 Ry                                         
                                                                                
   TITEL  = PAW_PBE S 06Sep2000                                                 
   LULTRA =        F    use ultrasoft PP ?                                      
   IUNSCR =        1    unscreen: 0-lin 1-nonlin 2-no                           
   RPACOR =    1.500    partial core radius                                     
   POMASS =   32.066; ZVAL   =    6.000    mass and valenz                      
   RCORE  =    1.900    outmost cutoff radius                                   
   RWIGS  =    2.200; RWIGS  =    1.164    wigner-seitz radius (au A)           
   ENMAX  =  258.689; ENMIN  =  194.016 eV                                      
   ICORE  =        2    local potential                                         
   LCOR   =        T    correct aug charges                                     
   LPAW   =        T    paw PP                                                  
   EAUG   =  335.092                                                            
   DEXC   =    0.000                                                            
   RMAX   =    1.942    core radius for proj-oper                               
   RAUG   =    1.300    factor for augmentation sphere                          
   RDEP   =    1.954    radius for radial grids                                 
   RDEPT  =    1.744    core radius for aug-charge                              
                                                                                
   Atomic configuration                                                         
    6 entries                                                                   
     n  l   j            E        occ.                                          
     1  0  0.50     -2405.8406   2.0000                                         
     2  0  0.50      -211.7007   2.0000                                         
     2  1  1.50      -156.4958   6.0000                                         
     3  0  0.50       -17.2562   2.0000                                         
     3  1  0.50        -7.0085   4.0000                                         
     3  2  1.50        -6.8029   0.0000                                         
   Description                                                                  
     l       E           TYP  RCUT    TYP  RCUT                                 
     0    -17.2561641     23  1.900                                             
     0    -15.8743224     23  1.900                                             
     1     -7.0085400     23  1.900                                             
     1     -2.7779785     23  1.900                                             
     2     -6.8029130     23  1.900                                             
  local pseudopotential read in
  partial core-charges read in
  partial kinetic energy density read in
  atomic valenz-charges read in
  non local Contribution for L=           0  read in
    real space projection operators read in
  non local Contribution for L=           0  read in
    real space projection operators read in
  non local Contribution for L=           1  read in
    real space projection operators read in
  non local Contribution for L=           1  read in
    real space projection operators read in
    PAW grid and wavefunctions read in
 
   number of l-projection  operators is LMAX  =           4
   number of lm-projection operators is LMMAX =           8
 
 POTCAR:     PAW_PBE Cu_pv 06Sep2000              
   SHA256 =  cb7b504e2ea725fe1f25c85a9ac77d4012ce94cd394135b722c4e25ec297f1cb Cu
   COPYR  = (c) Copyright 06Sep2000 Georg Kresse                                
   COPYR  = This file is part of the software VASP. Any use, copying, and all ot
   COPYR  = If you do not have a valid VASP license, you may not use, copy or di
   VRHFIN =Cu: d10 p1                                                           
   LEXCH  = PE                                                                  
   EATOM  =  4120.1201 eV,  302.8203 Ry                                         
                                                                                
   TITEL  = PAW_PBE Cu_pv 06Sep2000                                             
   LULTRA =        F    use ultrasoft PP ?                                      
   IUNSCR =        1    unscreen: 0-lin 1-nonlin 2-no                           
   RPACOR =    1.500    partial core radius                                     
   POMASS =   63.546; ZVAL   =   17.000    mass and valenz                      
   RCORE  =    2.000    outmost cutoff radius                                   
   RWIGS  =    2.000; RWIGS  =    1.058    wigner-seitz radius (au A)           
   ENMAX  =  368.648; ENMIN  =  276.486 eV                                      
   RCLOC  =    1.304    cutoff for local pot                                    
   LCOR   =        T    correct aug charges                                     
   LPAW   =        T    paw PP                                                  
   EAUG   =  758.233                                                            
   DEXC   =    0.000                                                            
   RMAX   =    2.046    core radius for proj-oper                               
   RAUG   =    1.300    factor for augmentation sphere                          
   RDEP   =    2.025    radius for radial grids                                 
   RDEPT  =    1.558    core radius for aug-charge                              
                                                                                
   Atomic configuration                                                         
    8 entries                                                                   
     n  l   j            E        occ.                                          
     1  0  0.50     -8850.2467   2.0000                                         
     2  0  0.50     -1062.3498   2.0000                                         
     2  1  1.50      -916.8226   6.0000                                         
     3  0  0.50      -114.6929   2.0000                                         
     3  1  1.50       -72.1325   6.0000                                         
     3  2  2.50        -5.0394  10.0000                                         
     4  0  0.50        -4.6097   1.0000                                         
     4  3  2.50        -1.3606   0.0000                                         
   Description                                                                  
     l       E           TYP  RCUT    TYP  RCUT                                 
     1    -72.1324777     23  1.700                                             
     1     -1.3605826     23  1.700                                             
     2     -5.0393776     23  2.000                                             
     2     -6.3999602     23  2.000                                             
     0     -4.6097062     23  1.800                                             
     0     14.1620818     23  1.800                                             
  local pseudopotential read in
  partial core-charges read in
  partial kinetic energy density read in
  atomic valenz-charges read in
  non local Contribution for L=           1  read in
    real space projection operators read in
  non local Contribution for L=           1  read in
    real space projection operators read in
  non local Contribution for L=           2  read in
    real space projection operators read in
  non local Contribution for L=           2  read in
    real space projection operators read in
  non local Contribution for L=           0  read in
    real space projection operators read in
  non local Contribution for L=           0  read in
    real space projection operators read in
    PAW grid and wavefunctions read in
 
   number of l-projection  operators is LMAX  =           6
   number of lm-projection operators is LMMAX =          18
 
 POTCAR:     PAW_PBE Fe_pv 02Aug2007              
   SHA256 =  5d22e414b1f82158bf2c7ecb8b97b28fd0923e48cadc1c3bf74d524558f5dd32 Fe
   COPYR  = (c) Copyright 02Aug2007 Georg Kresse                                
   COPYR  = This file is part of the software VASP. Any use, copying, and all ot
   COPYR  = If you do not have a valid VASP license, you may not use, copy or di
   VRHFIN =Fe:  3pd7s1                                                          
   LEXCH  = PE                                                                  
   EATOM  =  2457.4239 eV,  180.6156 Ry                                         
                                                                                
   TITEL  = PAW_PBE Fe_pv 02Aug2007                                             
   LULTRA =        F    use ultrasoft PP ?                                      
   IUNSCR =        1    unscreen: 0-lin 1-nonlin 2-no                           
   RPACOR =    1.750    partial core radius                                     
   POMASS =   55.847; ZVAL   =   14.000    mass and valenz                      
   RCORE  =    2.200    outmost cutoff radius                                   
   RWIGS  =    2.200; RWIGS  =    1.164    wigner-seitz radius (au A)           
   ENMAX  =  293.238; ENMIN  =  219.928 eV                                      
   ICORE  =        3    local potential                                         
   LCOR   =        T    correct aug charges                                     
   LPAW   =        T    paw PP                                                  
   EAUG   =  578.342                                                            
   DEXC   =    0.000                                                            
   RMAX   =    2.249    core radius for proj-oper                               
   RAUG   =    1.300    factor for augmentation sphere                          
   RDEP   =    2.296    radius for radial grids                                 
   RDEPT  =    1.766    core radius for aug-charge                              
                                                                                
   Atomic configuration                                                         
    8 entries                                                                   
     n  l   j            E        occ.                                          
     1  0  0.50     -6993.8440   2.0000                                         
     2  0  0.50      -814.6047   2.0000                                         
     2  1  1.50      -693.3689   6.0000                                         
     3  0  0.50       -89.4732   2.0000                                         
     3  1  1.50       -55.6373   6.0000                                         
     3  2  2.50        -3.8151   7.0000                                         
     4  0  0.50        -4.2551   1.0000                                         
     4  3  2.50        -1.3606   0.0000                                         
   Description                                                                  
     l       E           TYP  RCUT    TYP  RCUT                                 
     1    -55.6372668     23  2.000                                             
     1     -5.4423304     23  2.000                                             
     2     -3.8151096     23  2.200                                             
     2     -5.1756922     23  2.200                                             
     0     -4.2550951     23  2.200                                             
     0     27.2116520     23  2.200                                             
     3     -1.3605826     23  2.200                                             
  local pseudopotential read in
  partial core-charges read in
  partial kinetic energy density read in
  atomic valenz-charges read in
  non local Contribution for L=           1  read in
    real space projection operators read in
  non local Contribution for L=           1  read in
    real space projection operators read in
  non local Contribution for L=           2  read in
    real space projection operators read in
  non local Contribution for L=           2  read in
    real space projection operators read in
  non local Contribution for L=           0  read in
    real space projection operators read in
  non local Contribution for L=           0  read in
    real space projection operators read in
    PAW grid and wavefunctions read in
 
   number of l-projection  operators is LMAX  =           6
   number of lm-projection operators is LMMAX =          18
 

 ----------------------------------------------------------------------------- 
|                                                                             |
|  ADVICE TO THIS USER RUNNING 'VASP/VAMP'   (HEAR YOUR MASTER'S VOICE ...):  |
|                                                                             |
|      You have a (more or less) 'large supercell' and for larger cells       |
|      it might be more efficient to use real space projection opertators     |
|      So try LREAL= Auto  in the INCAR   file.                               |
|      Mind:          For very  accurate calculation you might also keep the  |
|      reciprocal projection scheme          (i.e. LREAL=.FALSE.)             |
|                                                                             |
 ----------------------------------------------------------------------------- 


 ----------------------------------------------------------------------------- 
|                                                                             |
|  ADVICE TO THIS USER RUNNING 'VASP/VAMP'   (HEAR YOUR MASTER'S VOICE ...):  |
|                                                                             |
|      You enforced a specific xc-type in the INCAR file,                     |
|      a different type was found on the POTCAR file                          |
|          I HOPE YOU KNOW, WHAT YOU ARE  DOING                               |
|                                                                             |
 ----------------------------------------------------------------------------- 

  PAW_PBE S 06Sep2000                   :
 energy of atom  1       EATOM= -276.8230
 kinetic energy error for atom=    0.0007 (will be added to EATOM!!)
   PAW_PBE Cu_pv 06Sep2000              :
 energy of atom  2       EATOM=-4120.1201
 kinetic energy error for atom=    0.0094 (will be added to EATOM!!)
   PAW_PBE Fe_pv 02Aug2007              :
 energy of atom  3       EATOM=-2457.4239
 kinetic energy error for atom=    0.0025 (will be added to EATOM!!)
 
 
 POSCAR: Fe16 Cu16 S32                           
  positions in direct lattice
  No initial velocities read in
 exchange correlation table for  LEXCH =       14
   RHO(1)=    0.500       N(1)  =     2000
   RHO(2)=  100.500       N(2)  =     4000
 


--------------------------------------------------------------------------------------------------------


 ion  position               nearest neighbor table
   1  0.126  0.125  0.125-  41 2.26  37 2.26  61 2.28  49 2.28
   2  0.626  0.125  0.125-  42 2.26  38 2.26  62 2.28  50 2.28
   3  0.126  0.625  0.125-  43 2.26  39 2.26  63 2.28  51 2.28
   4  0.626  0.625  0.125-  44 2.26  40 2.26  64 2.28  52 2.28
   5  0.374  0.375  0.125-  39 2.26  41 2.26  52 2.28  62 2.28
   6  0.874  0.375  0.125-  40 2.26  42 2.26  51 2.28  61 2.28
   7  0.374  0.875  0.125-  37 2.26  43 2.26  50 2.28  64 2.28
   8  0.874  0.875  0.125-  38 2.26  44 2.26  49 2.28  63 2.28
   9  0.125  0.374  0.875-  41 2.26  45 2.26  51 2.28  55 2.28
  10  0.625  0.374  0.875-  42 2.26  46 2.26  52 2.28  56 2.28
  11  0.125  0.874  0.875-  43 2.26  47 2.26  49 2.28  53 2.28
  12  0.625  0.874  0.875-  44 2.26  48 2.26  50 2.28  54 2.28
  13  0.375  0.126  0.875-  41 2.26  46 2.26  50 2.28  53 2.28
  14  0.875  0.126  0.875-  42 2.26  45 2.26  49 2.28  54 2.28
  15  0.375  0.626  0.875-  43 2.26  48 2.26  52 2.28  55 2.28
  16  0.875  0.626  0.875-  44 2.26  47 2.26  51 2.28  56 2.28
  17  0.124  0.125  0.625-  45 2.26  33 2.26  57 2.28  53 2.28
  18  0.624  0.125  0.625-  46 2.26  34 2.26  58 2.28  54 2.28
  19  0.124  0.625  0.625-  47 2.26  35 2.26  59 2.28  55 2.28
  20  0.624  0.625  0.625-  48 2.26  36 2.26  60 2.28  56 2.28
  21  0.376  0.375  0.625-  36 2.26  46 2.26  55 2.28  57 2.28
  22  0.876  0.375  0.625-  35 2.26  45 2.26  56 2.28  58 2.28
  23  0.376  0.875  0.625-  34 2.26  48 2.26  53 2.28  59 2.28
  24  0.876  0.875  0.625-  33 2.26  47 2.26  54 2.28  60 2.28
  25  0.375  0.124  0.375-  34 2.26  37 2.26  57 2.28  62 2.28
  26  0.875  0.124  0.375-  33 2.26  38 2.26  58 2.28  61 2.28
  27  0.375  0.624  0.375-  36 2.26  39 2.26  59 2.28  64 2.28
  28  0.875  0.624  0.375-  35 2.26  40 2.26  60 2.28  63 2.28
  29  0.125  0.376  0.375-  35 2.26  39 2.26  57 2.28  61 2.28
  30  0.625  0.376  0.375-  36 2.26  40 2.26  58 2.28  62 2.28
  31  0.125  0.876  0.375-  33 2.26  37 2.26  59 2.28  63 2.28
  32  0.625  0.876  0.375-  34 2.26  38 2.26  60 2.28  64 2.28
  33  1.000  0.000  0.500-  24 2.26  31 2.26  26 2.26  17 2.26
  34  0.500  0.000  0.500-  23 2.26  32 2.26  25 2.26  18 2.26
  35  1.000  0.500  0.500-  22 2.26  29 2.26  28 2.26  19 2.26
  36  0.500  0.500  0.500-  21 2.26  30 2.26  27 2.26  20 2.26
  37  0.250  0.000  0.250-   7 2.26  31 2.26  25 2.26   1 2.26
  38  0.750  0.000  0.250-   8 2.26  32 2.26  26 2.26   2 2.26
  39  0.250  0.500  0.250-   5 2.26  29 2.26  27 2.26   3 2.26
  40  0.750  0.500  0.250-   6 2.26  30 2.26  28 2.26   4 2.26
  41  0.250  0.250  0.000-   1 2.26  13 2.26   9 2.26   5 2.26
  42  0.750  0.250  0.000-   2 2.26  14 2.26  10 2.26   6 2.26
  43  0.250  0.750  0.000-   3 2.26  15 2.26  11 2.26   7 2.26
  44  0.750  0.750  0.000-   4 2.26  16 2.26  12 2.26   8 2.26
  45  0.000  0.250  0.750-  17 2.26  14 2.26   9 2.26  22 2.26
  46  0.500  0.250  0.750-  18 2.26  13 2.26  10 2.26  21 2.26
  47  0.000  0.750  0.750-  19 2.26  16 2.26  11 2.26  24 2.26
  48  0.500  0.750  0.750-  20 2.26  15 2.26  12 2.26  23 2.26
  49  1.000  0.000  0.000-   8 2.28  11 2.28  14 2.28   1 2.28
  50  0.500  0.000  0.000-   7 2.28  12 2.28  13 2.28   2 2.28
  51  1.000  0.500  0.000-   6 2.28   9 2.28  16 2.28   3 2.28
  52  0.500  0.500  0.000-   5 2.28  10 2.28  15 2.28   4 2.28
  53  0.250  0.000  0.750-  23 2.28  11 2.28  13 2.28  17 2.28
  54  0.750  0.000  0.750-  24 2.28  12 2.28  14 2.28  18 2.28
  55  0.250  0.500  0.750-  21 2.28   9 2.28  15 2.28  19 2.28
  56  0.750  0.500  0.750-  22 2.28  10 2.28  16 2.28  20 2.28
  57  0.250  0.250  0.500-  17 2.28  25 2.28  29 2.28  21 2.28
  58  0.750  0.250  0.500-  18 2.28  26 2.28  30 2.28  22 2.28
  59  0.250  0.750  0.500-  19 2.28  27 2.28  31 2.28  23 2.28
  60  0.750  0.750  0.500-  20 2.28  28 2.28  32 2.28  24 2.28
  61  0.000  0.250  0.250-   1 2.28  26 2.28  29 2.28   6 2.28
  62  0.500  0.250  0.250-   2 2.28  25 2.28  30 2.28   5 2.28
  63  0.000  0.750  0.250-   3 2.28  28 2.28  31 2.28   8 2.28
  64  0.500  0.750  0.250-   4 2.28  27 2.28  32 2.28   7 2.28
 
  LATTYP: Found a simple monoclinic cell.
 ALAT       =    14.8105170889
 B/A-ratio  =     0.7100334807
 C/A-ratio  =     1.5761000534
 COS(beta)  =    -0.9485359064
  
  Lattice vectors:
  
 A1 = ( -10.5249800000,   0.0000000000, -10.4199910000)
 A2 = (   0.0000000000, -10.5159630000,   0.0000000000)
 A3 = (  10.5340650000,   0.0000000000,  20.8308050000)


Analysis of symmetry for initial positions (statically):
=====================================================================
 Subroutine PRICEL returns following result:
 
  LATTYP: Found a base centered monoclinic cell.
 ALAT       =    11.6550455469
 B/A-ratio  =     0.4511335008
 C/A-ratio  =     0.8932455838
 COS(beta)  =    -0.8135064030
  
  Lattice vectors:
  
 A1 = (  -2.6244312500,  -2.6289907500,   5.2031127500)
 A2 = (  -2.6244312500,   2.6289907500,   5.2031127500)
 A3 = (  -0.0090850000,   0.0000000000, -10.4108140000)
 
   8 primitive cells build up your supercell.
 

 Routine SETGRP: Setting up the symmetry group for a 
 simple monoclinic supercell.


 Subroutine GETGRP returns: Found  2 space group operations
 (whereof  1 operations were pure point group operations)
 out of a pool of  4 trial point group operations.


The static configuration has the point symmetry C_1 .
 The point group associated with its full space group is C_2 .


Analysis of symmetry for dynamics (positions and initial velocities):
=====================================================================
 Subroutine PRICEL returns following result:
 
  LATTYP: Found a base centered monoclinic cell.
 ALAT       =    11.6550455469
 B/A-ratio  =     0.4511335008
 C/A-ratio  =     0.8932455838
 COS(beta)  =    -0.8135064030
  
  Lattice vectors:
  
 A1 = (  -2.6244312500,  -2.6289907500,   5.2031127500)
 A2 = (  -2.6244312500,   2.6289907500,   5.2031127500)
 A3 = (  -0.0090850000,   0.0000000000, -10.4108140000)
 
   8 primitive cells build up your supercell.
 

 Routine SETGRP: Setting up the symmetry group for a 
 simple monoclinic supercell.


 Subroutine GETGRP returns: Found  2 space group operations
 (whereof  1 operations were pure point group operations)
 out of a pool of  4 trial point group operations.


The dynamic configuration has the point symmetry C_1 .
 The point group associated with its full space group is C_2 .


Analysis of structural, dynamic, and magnetic symmetry:
=====================================================================
 Subroutine PRICEL returns following result:
 
  LATTYP: Found a base centered monoclinic cell.
 ALAT       =    11.6550455469
 B/A-ratio  =     0.4511335008
 C/A-ratio  =     0.8932455838
 COS(beta)  =    -0.8135064030
  
  Lattice vectors:
  
 A1 = (  -2.6244312500,  -2.6289907500,   5.2031127500)
 A2 = (  -2.6244312500,   2.6289907500,   5.2031127500)
 A3 = (  -0.0090850000,   0.0000000000, -10.4108140000)
 
   8 primitive cells build up your supercell.
 

 Routine SETGRP: Setting up the symmetry group for a 
 simple monoclinic supercell.


 Subroutine GETGRP returns: Found  2 space group operations
 (whereof  1 operations were pure point group operations)
 out of a pool of  4 trial point group operations.


The magnetic configuration has the point symmetry C_1 .
 The point group associated with its full space group is C_2 .


 Subroutine INISYM returns: Found  2 space group operations
 (whereof  1 operations are pure point group operations),
 and found     8 'primitive' translations

 
 
 KPOINTS: Automatic mesh                          

Automatic generation of k-mesh.
Space group operators:
 irot       det(A)        alpha          n_x          n_y          n_z        tau_x        tau_y        tau_z
    1     1.000000     0.000000     1.000000     0.000000     0.000000     0.000000     0.000000     0.000000
    2     1.000000   180.000000     0.000000     1.000000     0.000000    -0.250000     0.000000    -0.250000
 
 Subroutine IBZKPT returns following result:
 ===========================================
 
 Found     30 irreducible k-points:
 
 Following reciprocal coordinates:
            Coordinates               Weight
  0.000000  0.000000  0.000000      1.000000
  0.250000  0.000000 -0.000000      2.000000
  0.500000  0.000000 -0.000000      1.000000
  0.000000  0.250000  0.000000      2.000000
  0.250000  0.250000 -0.000000      4.000000
  0.500000  0.250000 -0.000000      2.000000
  0.000000  0.500000  0.000000      1.000000
  0.250000  0.500000 -0.000000      2.000000
  0.500000  0.500000 -0.000000      1.000000
  0.000000  0.000000  0.250000      2.000000
  0.250000  0.000000  0.250000      2.000000
  0.500000  0.000000  0.250000      2.000000
 -0.250000  0.000000  0.250000      2.000000
  0.000000  0.250000  0.250000      4.000000
  0.250000  0.250000  0.250000      4.000000
  0.500000  0.250000  0.250000      4.000000
 -0.250000  0.250000  0.250000      4.000000
  0.000000  0.500000  0.250000      2.000000
  0.250000  0.500000  0.250000      2.000000
  0.500000  0.500000  0.250000      2.000000
 -0.250000  0.500000  0.250000      2.000000
  0.000000  0.000000  0.500000      1.000000
  0.250000  0.000000  0.500000      2.000000
  0.500000  0.000000  0.500000      1.000000
  0.000000  0.250000  0.500000      2.000000
  0.250000  0.250000  0.500000      4.000000
  0.500000  0.250000  0.500000      2.000000
  0.000000  0.500000  0.500000      1.000000
  0.250000  0.500000  0.500000      2.000000
  0.500000  0.500000  0.500000      1.000000
 
 Following cartesian coordinates:
            Coordinates               Weight
  0.000000  0.000000  0.000000      1.000000
  0.023774  0.000000 -0.000021      2.000000
  0.047547  0.000000 -0.000041      1.000000
  0.000000  0.023773  0.000000      2.000000
  0.023774  0.023773 -0.000021      4.000000
  0.047547  0.023773 -0.000041      2.000000
  0.000000  0.047547  0.000000      1.000000
  0.023774  0.047547 -0.000021      2.000000
  0.047547  0.047547 -0.000041      1.000000
 -0.000021  0.000000  0.024014      2.000000
  0.023753  0.000000  0.023993      2.000000
  0.047526  0.000000  0.023972      2.000000
 -0.023795  0.000000  0.024034      2.000000
 -0.000021  0.023773  0.024014      4.000000
  0.023753  0.023773  0.023993      4.000000
  0.047526  0.023773  0.023972      4.000000
 -0.023795  0.023773  0.024034      4.000000
 -0.000021  0.047547  0.024014      2.000000
  0.023753  0.047547  0.023993      2.000000
  0.047526  0.047547  0.023972      2.000000
 -0.023795  0.047547  0.024034      2.000000
 -0.000042  0.000000  0.048027      1.000000
  0.023732  0.000000  0.048006      2.000000
  0.047505  0.000000  0.047986      1.000000
 -0.000042  0.023773  0.048027      2.000000
  0.023732  0.023773  0.048006      4.000000
  0.047505  0.023773  0.047986      2.000000
 -0.000042  0.047547  0.048027      1.000000
  0.023732  0.047547  0.048006      2.000000
  0.047505  0.047547  0.047986      1.000000
 
 TETIRR: Found    192 inequivalent tetrahedra from      384
 
 Subroutine IBZKPT_HF returns following result:
 ==============================================
 
 Found     64 k-points in 1st BZ
 the following     64 k-points will be used (e.g. in the exchange kernel)
 Following reciprocal coordinates:   # in IRBZ
  0.000000  0.000000  0.000000    0.01562500   1 t-inv F
  0.250000  0.000000 -0.000000    0.01562500   2 t-inv F
  0.500000  0.000000 -0.000000    0.01562500   3 t-inv F
  0.000000  0.250000  0.000000    0.01562500   4 t-inv F
  0.250000  0.250000 -0.000000    0.01562500   5 t-inv F
  0.500000  0.250000 -0.000000    0.01562500   6 t-inv F
  0.000000  0.500000  0.000000    0.01562500   7 t-inv F
  0.250000  0.500000 -0.000000    0.01562500   8 t-inv F
  0.500000  0.500000 -0.000000    0.01562500   9 t-inv F
  0.000000  0.000000  0.250000    0.01562500  10 t-inv F
  0.250000  0.000000  0.250000    0.01562500  11 t-inv F
  0.500000  0.000000  0.250000    0.01562500  12 t-inv F
 -0.250000  0.000000  0.250000    0.01562500  13 t-inv F
  0.000000  0.250000  0.250000    0.01562500  14 t-inv F
  0.250000  0.250000  0.250000    0.01562500  15 t-inv F
  0.500000  0.250000  0.250000    0.01562500  16 t-inv F
 -0.250000  0.250000  0.250000    0.01562500  17 t-inv F
  0.000000  0.500000  0.250000    0.01562500  18 t-inv F
  0.250000  0.500000  0.250000    0.01562500  19 t-inv F
  0.500000  0.500000  0.250000    0.01562500  20 t-inv F
 -0.250000  0.500000  0.250000    0.01562500  21 t-inv F
  0.000000  0.000000  0.500000    0.01562500  22 t-inv F
  0.250000  0.000000  0.500000    0.01562500  23 t-inv F
  0.500000  0.000000  0.500000    0.01562500  24 t-inv F
  0.000000  0.250000  0.500000    0.01562500  25 t-inv F
  0.250000  0.250000  0.500000    0.01562500  26 t-inv F
  0.500000  0.250000  0.500000    0.01562500  27 t-inv F
  0.000000  0.500000  0.500000    0.01562500  28 t-inv F
  0.250000  0.500000  0.500000    0.01562500  29 t-inv F
  0.500000  0.500000  0.500000    0.01562500  30 t-inv F
 -0.250000  0.000000  0.000000    0.01562500   2 t-inv F spinflp
 -0.250000  0.250000  0.000000    0.01562500   5 t-inv F spinflp
 -0.250000  0.500000  0.000000    0.01562500   8 t-inv F spinflp
 -0.000000  0.000000 -0.250000    0.01562500  10 t-inv F spinflp
 -0.250000  0.000000 -0.250000    0.01562500  11 t-inv F spinflp
 -0.500000  0.000000 -0.250000    0.01562500  12 t-inv F spinflp
  0.250000  0.000000 -0.250000    0.01562500  13 t-inv F spinflp
 -0.000000  0.250000 -0.250000    0.01562500  14 t-inv F spinflp
 -0.250000  0.250000 -0.250000    0.01562500  15 t-inv F spinflp
 -0.500000  0.250000 -0.250000    0.01562500  16 t-inv F spinflp
  0.250000  0.250000 -0.250000    0.01562500  17 t-inv F spinflp
 -0.000000  0.500000 -0.250000    0.01562500  18 t-inv F spinflp
 -0.250000  0.500000 -0.250000    0.01562500  19 t-inv F spinflp
 -0.500000  0.500000 -0.250000    0.01562500  20 t-inv F spinflp
  0.250000  0.500000 -0.250000    0.01562500  21 t-inv F spinflp
 -0.250000  0.000000 -0.500000    0.01562500  23 t-inv F spinflp
 -0.250000  0.250000 -0.500000    0.01562500  26 t-inv F spinflp
 -0.250000  0.500000 -0.500000    0.01562500  29 t-inv F spinflp
  0.000000 -0.250000  0.000000    0.01562500   4 t-inv T
 -0.250000 -0.250000  0.000000    0.01562500   5 t-inv T
  0.250000 -0.250000 -0.000000    0.01562500   5 t-inv T spinflp
 -0.500000 -0.250000  0.000000    0.01562500   6 t-inv T
 -0.000000 -0.250000 -0.250000    0.01562500  14 t-inv T
  0.000000 -0.250000  0.250000    0.01562500  14 t-inv T spinflp
 -0.250000 -0.250000 -0.250000    0.01562500  15 t-inv T
  0.250000 -0.250000  0.250000    0.01562500  15 t-inv T spinflp
 -0.500000 -0.250000 -0.250000    0.01562500  16 t-inv T
  0.500000 -0.250000  0.250000    0.01562500  16 t-inv T spinflp
  0.250000 -0.250000 -0.250000    0.01562500  17 t-inv T
 -0.250000 -0.250000  0.250000    0.01562500  17 t-inv T spinflp
 -0.000000 -0.250000 -0.500000    0.01562500  25 t-inv T
 -0.250000 -0.250000 -0.500000    0.01562500  26 t-inv T
  0.250000 -0.250000  0.500000    0.01562500  26 t-inv T spinflp
 -0.500000 -0.250000 -0.500000    0.01562500  27 t-inv T


--------------------------------------------------------------------------------------------------------




 Dimension of arrays:
   k-points           NKPTS =     30   k-points in BZ     NKDIM =     30   number of bands    NBANDS=    512
   number of dos      NEDOS =    301   number of ions     NIONS =     64
   non local maximal  LDIM  =      6   non local SUM 2l+1 LMDIM =     18
   total plane-waves  NPLWV = 829440
   max r-space proj   IRMAX =      1   max aug-charges    IRDMAX=  22895
   dimension x,y,z NGX =    96 NGY =   96 NGZ =   90
   dimension x,y,z NGXF=   192 NGYF=  192 NGZF=  180
   support grid    NGXF=   192 NGYF=  192 NGZF=  180
   ions per type =              32  16  16
   NGX,Y,Z   is equivalent  to a cutoff of  15.18, 15.18, 14.37 a.u.
   NGXF,Y,Z  is equivalent  to a cutoff of  30.35, 30.35, 28.74 a.u.

 SYSTEM =  CuFeS2                                  
 POSCAR =  Fe16 Cu16 S32                           

 Startparameter for this run:
   NWRITE =      2    write-flag & timer
   PREC   = accura    normal or accurate (medium, high low for compatibility)
   ISTART =      0    job   : 0-new  1-cont  2-samecut
   ICHARG =      1    charge: 1-file 2-atom 10-const
   ISPIN  =      2    spin polarized calculation?
   LNONCOLLINEAR =      F non collinear calculations
   LSORBIT =      F    spin-orbit coupling
   INIWAV =      1    electr: 0-lowe 1-rand  2-diag
   LASPH  =      F    aspherical Exc in radial PAW
   METAGGA=      F    non-selfconsistent MetaGGA calc.

 Electronic Relaxation 1
   ENCUT  =  700.0 eV  51.45 Ry    7.17 a.u.  22.69 22.69 22.46*2*pi/ulx,y,z
   ENINI  =  700.0     initial cutoff
   ENAUG  =  758.2 eV  augmentation charge cutoff
   NELM   =    500;   NELMIN=  2; NELMDL=  0     # of ELM steps 
   EDIFF  = 0.1E-07   stopping-criterion for ELM
   LREAL  =      F    real-space projection
   NLSPLINE    = F    spline interpolate recip. space projectors
   LCOMPAT=      F    compatible to vasp.4.4
   GGA_COMPAT  = T    GGA compatible to vasp.4.4-vasp.4.6
   LMAXPAW     = -100 max onsite density
   LMAXMIX     =    4 max onsite mixed and CHGCAR
   VOSKOWN=      0    Vosko Wilk Nusair interpolation
   ROPT   =    0.00000   0.00000   0.00000
 Ionic relaxation
   EDIFFG = -.1E-04   stopping-criterion for IOM
   NSW    =      0    number of steps for IOM
   NBLOCK =      1;   KBLOCK =      1    inner block; outer block 
   IBRION =     -1    ionic relax: 0-MD 1-quasi-New 2-CG
   NFREE  =      0    steps in history (QN), initial steepest desc. (CG)
   ISIF   =      2    stress and relaxation
   IWAVPR =     10    prediction:  0-non 1-charg 2-wave 3-comb
   ISYM   =      2    0-nonsym 1-usesym 2-fastsym
   LCORR  =      T    Harris-Foulkes like correction to forces

   POTIM  = 0.5000    time-step for ionic-motion
   TEIN   =    0.0    initial temperature
   TEBEG  =    0.0;   TEEND  =   0.0 temperature during run
   SMASS  =  -3.00    Nose mass-parameter (am)
   estimated Nose-frequenzy (Omega)   =  0.10E-29 period in steps =****** mass=  -0.253E-26a.u.
   SCALEE = 1.0000    scale energy and forces
   NPACO  =    256;   APACO  = 16.0  distance and # of slots for P.C.
   PSTRESS=    0.0 pullay stress

  Mass of Ions in am
   POMASS =  32.07 63.55 55.85
  Ionic Valenz
   ZVAL   =   6.00 17.00 14.00
  Atomic Wigner-Seitz radii
   RWIGS  =  -1.00 -1.00 -1.00
  virtual crystal weights 
   VCA    =   1.00  1.00  1.00
   NELECT =     688.0000    total number of electrons
   NUPDOWN=      -1.0000    fix difference up-down

 DOS related values:
   EMIN   =  10.00;   EMAX   =-10.00  energy-range for DOS
   EFERMI =   0.00
   ISMEAR =    -5;   SIGMA  =   0.03  broadening in eV -4-tet -1-fermi 0-gaus

 Electronic relaxation 2 (details)
   IALGO  =     38    algorithm
   LDIAG  =      T    sub-space diagonalisation (order eigenvalues)
   LSUBROT=      F    optimize rotation matrix (better conditioning)
   TURBO    =      0    0=normal 1=particle mesh
   IRESTART =      0    0=no restart 2=restart with 2 vectors
   NREBOOT  =      0    no. of reboots
   NMIN     =      0    reboot dimension
   EREF     =   0.00    reference energy to select bands
   IMIX   =      4    mixing-type and parameters
     AMIX     =   0.40;   BMIX     =  1.00
     AMIX_MAG =   1.60;   BMIX_MAG =  1.00
     AMIN     =   0.10
     WC   =   100.;   INIMIX=   1;  MIXPRE=   1;  MAXMIX= -45

 Intra band minimization:
   WEIMIN = 0.0000     energy-eigenvalue tresh-hold
   EBREAK =  0.49E-11  absolut break condition
   DEPER  =   0.30     relativ break condition  

   TIME   =   0.40     timestep for ELM

  volume/ion in A,a.u.               =      17.99       121.39
  Fermi-wavevector in a.u.,A,eV,Ry     =   1.378937  2.605813 25.871033  1.901467
  Thomas-Fermi vector in A             =   2.503953
 
 Write flags
   LWAVE        =      T    write WAVECAR
   LDOWNSAMPLE  =      F    k-point downsampling of WAVECAR
   LCHARG       =      T    write CHGCAR
   LVTOT        =      F    write LOCPOT, total local potential
   LVHAR        =      F    write LOCPOT, Hartree potential only
   LELF         =      F    write electronic localiz. function (ELF)
   LORBIT       =     11    0 simple, 1 ext, 2 COOP (PROOUT), +10 PAW based schemes


 Dipole corrections
   LMONO  =      F    monopole corrections only (constant potential shift)
   LDIPOL =      F    correct potential (dipole corrections)
   IDIPOL =      0    1-x, 2-y, 3-z, 4-all directions 
   EPSILON=  1.0000000 bulk dielectric constant

 LDA+U is selected, type is set to LDAUTYPE =  2
   angular momentum for each species LDAUL =     2    2    2
   U (eV)           for each species LDAUU =   0.0  0.1  4.7
   J (eV)           for each species LDAUJ =   0.0  0.0  0.0
 Exchange correlation treatment:
   GGA     =    PS    GGA type
   LEXCH   =    14    internal setting for exchange type
   VOSKOWN=      0    Vosko Wilk Nusair interpolation
   LHFCALC =     F    Hartree Fock is set to
   LHFONE  =     F    Hartree Fock one center treatment
   AEXX    =    0.0000 exact exchange contribution

 Linear response parameters
   LEPSILON=     F    determine dielectric tensor
   LRPA    =     F    only Hartree local field effects (RPA)
   LNABLA  =     F    use nabla operator in PAW spheres
   LVEL    =     F    velocity operator in full k-point grid
   LINTERFAST=   F  fast interpolation
   KINTER  =     0    interpolate to denser k-point grid
   CSHIFT  =0.1000    complex shift for real part using Kramers Kronig
   OMEGAMAX=  -1.0    maximum frequency
   DEG_THRESHOLD= 0.2000000E-02 threshold for treating states as degnerate
   RTIME   =   -0.100 relaxation time in fs
  (WPLASMAI=    0.000 imaginary part of plasma frequency in eV, 0.658/RTIME)
   DFIELD  = 0.0000000 0.0000000 0.0000000 field for delta impulse in time
 
 Orbital magnetization related:
   ORBITALMAG=     F  switch on orbital magnetization
   LCHIMAG   =     F  perturbation theory with respect to B field
   DQ        =  0.001000  dq finite difference perturbation B field
   LLRAUG    =     F  two centre corrections for induced B field

 PEAD related settings:
   LPEAD      =     T    switch on PEAD
   IPEAD      =     4    finite difference order for dpsi/dk
   LCALCPOL   =     T    calculate macroscopic polarization
   LCALCEPS   =     F    calculate dielectric tensor
   EFIELD_PEAD=    0.0000    0.0000    0.0000
   SKIP_EDOTP =     F
   LRPA       =     F
   SKIP_SCF   =     F


--------------------------------------------------------------------------------------------------------


 Static calculation
 charge density and potential will be updated during run
 spin polarized calculation
 Variant of blocked Davidson
 Davidson routine will perform the subspace rotation
 perform sub-space diagonalisation
    after iterative eigenvector-optimisation
 modified Broyden-mixing scheme, WC =      100.0
 initial mixing is a Kerker type mixing with AMIX =  0.4000 and BMIX =      1.0000
 Hartree-type preconditioning will be used
 using additional bands          168
 reciprocal scheme for non local part
 use partial core corrections
 calculate Harris-corrections to forces 
   (improved forces if not selfconsistent)
 use gradient corrections 
 use of overlap-Matrix (Vanderbilt PP)
 Fermi weights with tetrahedron method with Bloechl corrections


--------------------------------------------------------------------------------------------------------


  energy-cutoff  :      700.00
  volume of cell :     1151.28
      direct lattice vectors                 reciprocal lattice vectors
    10.515895000  0.000000000  0.009177000     0.095094213  0.000000000 -0.000082984
     0.000000000 10.515963000  0.000000000     0.000000000  0.095093526  0.000000000
     0.009085000  0.000000000 10.410814000    -0.000083824  0.000000000  0.096054042

  length of vectors
    10.515899004 10.515963000 10.410817964     0.095094249  0.095093526  0.096054078


 
 k-points in units of 2pi/SCALE and weight: Automatic mesh                          
   0.00000000  0.00000000  0.00000000       0.016
   0.02377355  0.00000000 -0.00002075       0.031
   0.04754711  0.00000000 -0.00004149       0.016
   0.00000000  0.02377338  0.00000000       0.031
   0.02377355  0.02377338 -0.00002075       0.062
   0.04754711  0.02377338 -0.00004149       0.031
   0.00000000  0.04754676  0.00000000       0.016
   0.02377355  0.04754676 -0.00002075       0.031
   0.04754711  0.04754676 -0.00004149       0.016
  -0.00002096  0.00000000  0.02401351       0.031
   0.02375260  0.00000000  0.02399276       0.031
   0.04752615  0.00000000  0.02397202       0.031
  -0.02379451  0.00000000  0.02403426       0.031
  -0.00002096  0.02377338  0.02401351       0.062
   0.02375260  0.02377338  0.02399276       0.062
   0.04752615  0.02377338  0.02397202       0.062
  -0.02379451  0.02377338  0.02403426       0.062
  -0.00002096  0.04754676  0.02401351       0.031
   0.02375260  0.04754676  0.02399276       0.031
   0.04752615  0.04754676  0.02397202       0.031
  -0.02379451  0.04754676  0.02403426       0.031
  -0.00004191  0.00000000  0.04802702       0.016
   0.02373164  0.00000000  0.04800627       0.031
   0.04750519  0.00000000  0.04798553       0.016
  -0.00004191  0.02377338  0.04802702       0.031
   0.02373164  0.02377338  0.04800627       0.062
   0.04750519  0.02377338  0.04798553       0.031
  -0.00004191  0.04754676  0.04802702       0.016
   0.02373164  0.04754676  0.04800627       0.031
   0.04750519  0.04754676  0.04798553       0.016
 
 k-points in reciprocal lattice and weights: Automatic mesh                          
   0.00000000  0.00000000  0.00000000       0.016
   0.25000000  0.00000000 -0.00000000       0.031
   0.50000000  0.00000000 -0.00000000       0.016
   0.00000000  0.25000000  0.00000000       0.031
   0.25000000  0.25000000 -0.00000000       0.062
   0.50000000  0.25000000 -0.00000000       0.031
   0.00000000  0.50000000  0.00000000       0.016
   0.25000000  0.50000000 -0.00000000       0.031
   0.50000000  0.50000000 -0.00000000       0.016
   0.00000000  0.00000000  0.25000000       0.031
   0.25000000  0.00000000  0.25000000       0.031
   0.50000000  0.00000000  0.25000000       0.031
  -0.25000000  0.00000000  0.25000000       0.031
   0.00000000  0.25000000  0.25000000       0.062
   0.25000000  0.25000000  0.25000000       0.062
   0.50000000  0.25000000  0.25000000       0.062
  -0.25000000  0.25000000  0.25000000       0.062
   0.00000000  0.50000000  0.25000000       0.031
   0.25000000  0.50000000  0.25000000       0.031
   0.50000000  0.50000000  0.25000000       0.031
  -0.25000000  0.50000000  0.25000000       0.031
   0.00000000  0.00000000  0.50000000       0.016
   0.25000000  0.00000000  0.50000000       0.031
   0.50000000  0.00000000  0.50000000       0.016
   0.00000000  0.25000000  0.50000000       0.031
   0.25000000  0.25000000  0.50000000       0.062
   0.50000000  0.25000000  0.50000000       0.031
   0.00000000  0.50000000  0.50000000       0.016
   0.25000000  0.50000000  0.50000000       0.031
   0.50000000  0.50000000  0.50000000       0.016
 
 position of ions in fractional coordinates (direct lattice) 
   0.12615800  0.12489100  0.12501800
   0.62615800  0.12489100  0.12501800
   0.12615800  0.62489100  0.12501800
   0.62615800  0.62489100  0.12501800
   0.37384200  0.37489100  0.12498200
   0.87384200  0.37489100  0.12498200
   0.37384200  0.87489100  0.12498200
   0.87384200  0.87489100  0.12498200
   0.12500000  0.37376700  0.87500000
   0.62500000  0.37376700  0.87500000
   0.12500000  0.87376700  0.87500000
   0.62500000  0.87376700  0.87500000
   0.37500000  0.12608000  0.87500000
   0.87500000  0.12608000  0.87500000
   0.37500000  0.62608000  0.87500000
   0.87500000  0.62608000  0.87500000
   0.12384200  0.12489100  0.62498200
   0.62384200  0.12489100  0.62498200
   0.12384200  0.62489100  0.62498200
   0.62384200  0.62489100  0.62498200
   0.37615800  0.37489100  0.62501800
   0.87615800  0.37489100  0.62501800
   0.37615800  0.87489100  0.62501800
   0.87615800  0.87489100  0.62501800
   0.37500000  0.12376700  0.37500000
   0.87500000  0.12376700  0.37500000
   0.37500000  0.62376700  0.37500000
   0.87500000  0.62376700  0.37500000
   0.12500000  0.37608000  0.37500000
   0.62500000  0.37608000  0.37500000
   0.12500000  0.87608000  0.37500000
   0.62500000  0.87608000  0.37500000
   0.99996600  0.00009400  0.50000000
   0.49996600  0.00009400  0.50000000
   0.99996600  0.50009400  0.50000000
   0.49996600  0.50009400  0.50000000
   0.25003400  0.00009400  0.25000000
   0.75003400  0.00009400  0.25000000
   0.25003400  0.50009400  0.25000000
   0.75003400  0.50009400  0.25000000
   0.24996600  0.25009400  0.00000000
   0.74996600  0.25009400  0.00000000
   0.24996600  0.75009400  0.00000000
   0.74996600  0.75009400  0.00000000
   0.00003400  0.25009400  0.75000000
   0.50003400  0.25009400  0.75000000
   0.00003400  0.75009400  0.75000000
   0.50003400  0.75009400  0.75000000
   0.99998300  0.00009200  0.00000200
   0.49998300  0.00009200  0.00000200
   0.99998300  0.50009200  0.00000200
   0.49998300  0.50009200  0.00000200
   0.25001700  0.00009200  0.74999800
   0.75001700  0.00009200  0.74999800
   0.25001700  0.50009200  0.74999800
   0.75001700  0.50009200  0.74999800
   0.24998300  0.25009200  0.50000200
   0.74998300  0.25009200  0.50000200
   0.24998300  0.75009200  0.50000200
   0.74998300  0.75009200  0.50000200
   0.00001700  0.25009200  0.24999800
   0.50001700  0.25009200  0.24999800
   0.00001700  0.75009200  0.24999800
   0.50001700  0.75009200  0.24999800
 
 position of ions in cartesian coordinates  (Angst):
   1.32780007  1.31334914  1.30269690
   6.58574757  1.31334914  1.30728540
   1.32780007  6.57133064  1.30269690
   6.58574757  6.57133064  1.30728540
   3.93241868  3.94233989  1.30459510
   9.19036618  3.94233989  1.30918360
   3.93241868  9.20032139  1.30459510
   9.19036618  9.20032139  1.30918360
   1.32243625  3.93051994  9.11060937
   6.58038375  3.93051994  9.11519787
   1.32243625  9.18850144  9.11060937
   6.58038375  9.18850144  9.11519787
   3.95141000  1.32585262  9.11290362
   9.20935750  1.32585262  9.11749213
   3.95141000  6.58383412  9.11290362
   9.20935750  6.58383412  9.11749213
   1.30798743  1.31334914  6.50770785
   6.56593493  1.31334914  6.51229635
   1.30798743  6.57133064  6.50770785
   6.56593493  6.57133064  6.51229635
   3.96131632  3.94233989  6.51039815
   9.21926382  3.94233989  6.51498665
   3.96131632  9.20032139  6.51039815
   9.21926382  9.20032139  6.51498665
   3.94686750  1.30152919  3.90749662
   9.20481500  1.30152919  3.91208512
   3.94686750  6.55951069  3.90749662
   9.20481500  6.55951069  3.91208512
   1.31789375  3.95484337  3.90520238
   6.57584125  3.95484337  3.90979087
   1.31789375  9.21282487  3.90520238
   6.57584125  9.21282487  3.90979087
  10.52007996  0.00098850  5.21458369
   5.26213246  0.00098850  5.20999519
  10.52007996  5.25897000  5.21458369
   5.26213246  5.25897000  5.20999519
   2.63160254  0.00098850  2.60499806
   7.88955004  0.00098850  2.60958656
   2.63160254  5.25897000  2.60499806
   7.88955004  5.25897000  2.60958656
   2.62861621  2.62997925  0.00229394
   7.88656371  2.62997925  0.00688244
   2.62861621  7.88796075  0.00229394
   7.88656371  7.88796075  0.00688244
   0.00717129  2.62997925  7.80811081
   5.26511879  2.62997925  7.81269931
   0.00717129  7.88796075  7.80811081
   5.26511879  7.88796075  7.81269931
  10.51571625  0.00096747  0.00919767
   5.25776875  0.00096747  0.00460917
  10.51571625  5.25894897  0.00919767
   5.25776875  5.25894897  0.00460917
   2.63596625  0.00096747  7.81038408
   7.89391375  0.00096747  7.81497258
   2.63596625  5.25894897  7.81038408
   7.89391375  5.25894897  7.81497258
   2.63333750  2.62995822  5.20772192
   7.89128500  2.62995822  5.21231042
   2.63333750  7.88793972  5.20772192
   7.89128500  7.88793972  5.21231042
   0.00245000  2.62995822  2.60268283
   5.26039750  2.62995822  2.60727133
   0.00245000  7.88793972  2.60268283
   5.26039750  7.88793972  2.60727133
 


--------------------------------------------------------------------------------------------------------


 k-point  1 :   0.0000 0.0000 0.0000  plane waves:   48409
 k-point  2 :   0.2500 0.0000-0.0000  plane waves:   48428
 k-point  3 :   0.5000 0.0000-0.0000  plane waves:   48432
 k-point  4 :   0.0000 0.2500 0.0000  plane waves:   48427
 k-point  5 :   0.2500 0.2500-0.0000  plane waves:   48413
 k-point  6 :   0.5000 0.2500-0.0000  plane waves:   48446
 k-point  7 :   0.0000 0.5000 0.0000  plane waves:   48422
 k-point  8 :   0.2500 0.5000-0.0000  plane waves:   48436
 k-point  9 :   0.5000 0.5000-0.0000  plane waves:   48424
 k-point 10 :   0.0000 0.0000 0.2500  plane waves:   48450
 k-point 11 :   0.2500 0.0000 0.2500  plane waves:   48428
 k-point 12 :   0.5000 0.0000 0.2500  plane waves:   48456
 k-point 13 :  -0.2500 0.0000 0.2500  plane waves:   48445
 k-point 14 :   0.0000 0.2500 0.2500  plane waves:   48439
 k-point 15 :   0.2500 0.2500 0.2500  plane waves:   48399
 k-point 16 :   0.5000 0.2500 0.2500  plane waves:   48412
 k-point 17 :  -0.2500 0.2500 0.2500  plane waves:   48399
 k-point 18 :   0.0000 0.5000 0.2500  plane waves:   48458
 k-point 19 :   0.2500 0.5000 0.2500  plane waves:   48426
 k-point 20 :   0.5000 0.5000 0.2500  plane waves:   48386
 k-point 21 :  -0.2500 0.5000 0.2500  plane waves:   48412
 k-point 22 :   0.0000 0.0000 0.5000  plane waves:   48448
 k-point 23 :   0.2500 0.0000 0.5000  plane waves:   48402
 k-point 24 :   0.5000 0.0000 0.5000  plane waves:   48418
 k-point 25 :   0.0000 0.2500 0.5000  plane waves:   48406
 k-point 26 :   0.2500 0.2500 0.5000  plane waves:   48401
 k-point 27 :   0.5000 0.2500 0.5000  plane waves:   48352
 k-point 28 :   0.0000 0.5000 0.5000  plane waves:   48432
 k-point 29 :   0.2500 0.5000 0.5000  plane waves:   48352
 k-point 30 :   0.5000 0.5000 0.5000  plane waves:   48376

 maximum and minimum number of plane-waves per node :     48458    48352

 maximum number of plane-waves:     48458
 maximum index in each direction: 
   IXMAX=   22   IYMAX=   22   IZMAX=   22
   IXMIN=  -23   IYMIN=  -23   IZMIN=  -22


 serial   3D FFT for wavefunctions
 parallel 3D FFT for charge:
    minimum data exchange during FFTs selected (reduces bandwidth)


 total amount of memory used by VASP MPI-rank0   881832. kBytes
=======================================================================

   base      :      30000. kBytes
   nonl-proj :     680181. kBytes
   fftplans  :       4588. kBytes
   grid      :      69719. kBytes
   one-center:       1990. kBytes
   wavefun   :      95354. kBytes
 
     INWAV:  cpu time    0.0001: real time    0.0002
 Broyden mixing: mesh for mixing (old mesh)
   NGX = 45   NGY = 45   NGZ = 45
  (NGX  =192   NGY  =192   NGZ  =180)
  gives a total of  91125 points

 initial charge density was supplied:
 charge density of overlapping atoms calculated
 number of electron     688.0000000 magnetization       0.0000000
 keeping initial charge density in first step


--------------------------------------------------------------------------------------------------------


 Maximum index for augmentation-charges          899 (set IRDMAX)


--------------------------------------------------------------------------------------------------------


 First call to EWALD:  gamma=   0.169
 Maximum number of real-space cells 3x 3x 3
 Maximum number of reciprocal cells 3x 3x 3

    FEWALD:  cpu time    0.0026: real time    0.0030


--------------------------------------- Iteration      1(   1)  ---------------------------------------


    POTLOK:  cpu time    0.3616: real time    0.3893
    SETDIJ:  cpu time    0.0154: real time    0.0155
     EDDAV:  cpu time  317.5605: real time  320.1350
 BZINTS: Fermi energy: 16.798310;688.000000 electrons
         Band energy:***********;  BLOECHL correction: -0.005329
       DOS:  cpu time    0.3180: real time    0.3194
    --------------------------------------------
      LOOP:  cpu time  318.2555: real time  320.8593

 eigenvalue-minimisations  : 61440
 total energy-change (2. order) : 0.6202469E+04  (-0.5040562E+05)
 number of electron     688.0000000 magnetization       0.0000000
 augmentation part      688.0000000 magnetization       0.0000000

 Free energy of the ion-electron system (eV)
  ---------------------------------------------------
  alpha Z        PSCENC =      2354.90822533
  Ewald energy   TEWEN  =    -62456.16387531
  -Hartree energ DENC   =    -44329.01798894
  -exchange      EXHF   =         0.00000000
  -V(xc)+E(xc)   XCENC  =      3320.12334900
  PAW double counting   =     94592.23312189   -98164.79192727
  entropy T*S    EENTRO =         0.00000000
  eigenvalues    EBANDS =     -3134.88746442
  atomic energy  EATOM  =    114020.06510763
  Solvation  Ediel_sol  =         0.00000000
  ---------------------------------------------------
  free energy    TOTEN  =      6202.46854791 eV

  energy without entropy =     6202.46854791  energy(sigma->0) =     6202.46854791


--------------------------------------------------------------------------------------------------------




--------------------------------------- Iteration      1(   2)  ---------------------------------------


     EDDAV:  cpu time  352.4706: real time  355.0585
 BZINTS: Fermi energy:  6.610196;688.000000 electrons
         Band energy:***********;  BLOECHL correction:  0.000000
       DOS:  cpu time    0.0407: real time    0.0408
    --------------------------------------------
      LOOP:  cpu time  352.5113: real time  355.0994

 eigenvalue-minimisations  : 65024
 total energy-change (2. order) :-0.6291054E+04  (-0.6160114E+04)
 number of electron     688.0000000 magnetization       0.0000000
 augmentation part      688.0000000 magnetization       0.0000000

 Free energy of the ion-electron system (eV)
  ---------------------------------------------------
  alpha Z        PSCENC =      2354.90822533
  Ewald energy   TEWEN  =    -62456.16387531
  -Hartree energ DENC   =    -44329.01798894
  -exchange      EXHF   =         0.00000000
  -V(xc)+E(xc)   XCENC  =      3320.12334900
  PAW double counting   =     94592.23312189   -98164.79192727
  entropy T*S    EENTRO =         0.00000000
  eigenvalues    EBANDS =     -9425.94136500
  atomic energy  EATOM  =    114020.06510763
  Solvation  Ediel_sol  =         0.00000000
  ---------------------------------------------------
  free energy    TOTEN  =       -88.58535268 eV

  energy without entropy =      -88.58535268  energy(sigma->0) =      -88.58535268


--------------------------------------------------------------------------------------------------------




--------------------------------------- Iteration      1(   3)  ---------------------------------------


     EDDAV:  cpu time  624.0278: real time  628.1012
 BZINTS: Fermi energy:  6.003657;688.000000 electrons
         Band energy:***********;  BLOECHL correction:  0.000000
       DOS:  cpu time    0.0397: real time    0.0399
    --------------------------------------------
      LOOP:  cpu time  624.0676: real time  628.1411

 eigenvalue-minimisations  : 88064
 total energy-change (2. order) :-0.2838029E+03  (-0.2824937E+03)
 number of electron     688.0000000 magnetization       0.0000000
 augmentation part      688.0000000 magnetization       0.0000000

 Free energy of the ion-electron system (eV)
  ---------------------------------------------------
  alpha Z        PSCENC =      2354.90822533
  Ewald energy   TEWEN  =    -62456.16387531
  -Hartree energ DENC   =    -44329.01798894
  -exchange      EXHF   =         0.00000000
  -V(xc)+E(xc)   XCENC  =      3320.12334900
  PAW double counting   =     94592.23312189   -98164.79192727
  entropy T*S    EENTRO =         0.00000000
  eigenvalues    EBANDS =     -9709.74425602
  atomic energy  EATOM  =    114020.06510763
  Solvation  Ediel_sol  =         0.00000000
  ---------------------------------------------------
  free energy    TOTEN  =      -372.38824369 eV

  energy without entropy =     -372.38824369  energy(sigma->0) =     -372.38824369


--------------------------------------------------------------------------------------------------------




--------------------------------------- Iteration      1(   4)  ---------------------------------------


     EDDAV:  cpu time  395.4614: real time  398.2835
 BZINTS: Fermi energy:  6.089859;688.000000 electrons
         Band energy:***********;  BLOECHL correction:  0.000000
       DOS:  cpu time    0.0471: real time    0.0473
    --------------------------------------------
      LOOP:  cpu time  395.5085: real time  398.3308

 eigenvalue-minimisations  : 67840
 total energy-change (2. order) :-0.3950102E+01  (-0.3949865E+01)
 number of electron     688.0000000 magnetization       0.0000000
 augmentation part      688.0000000 magnetization       0.0000000

 Free energy of the ion-electron system (eV)
  ---------------------------------------------------
  alpha Z        PSCENC =      2354.90822533
  Ewald energy   TEWEN  =    -62456.16387531
  -Hartree energ DENC   =    -44329.01798894
  -exchange      EXHF   =         0.00000000
  -V(xc)+E(xc)   XCENC  =      3320.12334900
  PAW double counting   =     94592.23312189   -98164.79192727
  entropy T*S    EENTRO =         0.00000000
  eigenvalues    EBANDS =     -9713.69435793
  atomic energy  EATOM  =    114020.06510763
  Solvation  Ediel_sol  =         0.00000000
  ---------------------------------------------------
  free energy    TOTEN  =      -376.33834560 eV

  energy without entropy =     -376.33834560  energy(sigma->0) =     -376.33834560


--------------------------------------------------------------------------------------------------------




--------------------------------------- Iteration      1(   5)  ---------------------------------------


     EDDAV:  cpu time  603.6178: real time  607.5574
 BZINTS: Fermi energy:  6.051739;688.000000 electrons
         Band energy:***********;  BLOECHL correction:  0.000000
       DOS:  cpu time    0.0473: real time    0.0475
    CHARGE:  cpu time    4.0335: real time    4.0587
    MIXING:  cpu time    0.0076: real time    0.0076
    --------------------------------------------
      LOOP:  cpu time  607.7062: real time  611.6712

 eigenvalue-minimisations  : 85760
 total energy-change (2. order) :-0.1042923E+00  (-0.1042916E+00)
 number of electron     688.0000420 magnetization       0.0000000
 augmentation part      261.0343320 magnetization       0.0000000

 Broyden mixing:
  rms(total) = 0.74967E+01    rms(broyden)= 0.74967E+01
  rms(prec ) = 0.89735E+01
  weight for this iteration     100.00

 Free energy of the ion-electron system (eV)
  ---------------------------------------------------
  alpha Z        PSCENC =      2354.90822533
  Ewald energy   TEWEN  =    -62456.16387531
  -Hartree energ DENC   =    -44329.01798894
  -exchange      EXHF   =         0.00000000
  -V(xc)+E(xc)   XCENC  =      3320.12334900
  PAW double counting   =     94592.23312189   -98164.79192727
  entropy T*S    EENTRO =         0.00000000
  eigenvalues    EBANDS =     -9713.79865021
  atomic energy  EATOM  =    114020.06510763
  Solvation  Ediel_sol  =         0.00000000
  ---------------------------------------------------
  free energy    TOTEN  =      -376.44263789 eV

  energy without entropy =     -376.44263789  energy(sigma->0) =     -376.44263789


--------------------------------------------------------------------------------------------------------




--------------------------------------- Iteration      1(   6)  ---------------------------------------


    POTLOK:  cpu time    0.1461: real time    0.1471
    SETDIJ:  cpu time    0.0131: real time    0.0131
     EDDAV:  cpu time  323.6678: real time  326.0588
 BZINTS: Fermi energy:  4.287830;688.000000 electrons
         Band energy:***********;  BLOECHL correction: -0.000000
       DOS:  cpu time    0.1279: real time    0.1284
    CHARGE:  cpu time    4.0139: real time    4.0383
    MIXING:  cpu time    0.0026: real time    0.0465
    --------------------------------------------
      LOOP:  cpu time  327.9713: real time  330.4322

 eigenvalue-minimisations  : 61440
 total energy-change (2. order) : 0.4157054E+02  (-0.5900613E+02)
 number of electron     688.0000453 magnetization       0.0000000
 augmentation part      296.1527469 magnetization       0.0000000

 Broyden mixing:
  rms(total) = 0.99890E+01    rms(broyden)= 0.99890E+01
  rms(prec ) = 0.10428E+02
  weight for this iteration     100.00

 eigenvalues of (default mixing * dielectric matrix)
  average eigenvalue GAMMA=   0.1669
  0.1669

 Free energy of the ion-electron system (eV)
  ---------------------------------------------------
  alpha Z        PSCENC =      2354.90822533
  Ewald energy   TEWEN  =    -62456.16387531
  -Hartree energ DENC   =    -42373.55778655
  -exchange      EXHF   =         0.00000000
  -V(xc)+E(xc)   XCENC  =      3267.55545332
  PAW double counting   =     96416.77701981   -99776.13109457
  entropy T*S    EENTRO =         0.00000000
  eigenvalues    EBANDS =    -11788.32514824
  atomic energy  EATOM  =    114020.06510763
  Solvation  Ediel_sol  =         0.00000000
  ---------------------------------------------------
  free energy    TOTEN  =      -334.87209857 eV

  energy without entropy =     -334.87209857  energy(sigma->0) =     -334.87209857


--------------------------------------------------------------------------------------------------------




--------------------------------------- Iteration      1(   7)  ---------------------------------------


    POTLOK:  cpu time    0.1466: real time    0.1485
    SETDIJ:  cpu time    0.0129: real time    0.0130
     EDDAV:  cpu time  321.8743: real time  324.2473
 BZINTS: Fermi energy:  4.568355;688.000000 electrons
         Band energy:***********;  BLOECHL correction:  0.000000
       DOS:  cpu time    0.0478: real time    0.0480
    CHARGE:  cpu time    4.0136: real time    4.0381
    MIXING:  cpu time    0.0015: real time    0.0212
    --------------------------------------------
      LOOP:  cpu time  326.0967: real time  328.5161

 eigenvalue-minimisations  : 61440
 total energy-change (2. order) : 0.4972994E+01  (-0.1083064E+02)
 number of electron     688.0000440 magnetization      -0.0000000
 augmentation part      286.1204735 magnetization      -0.0000000

 Broyden mixing:
  rms(total) = 0.43623E+01    rms(broyden)= 0.43623E+01
  rms(prec ) = 0.44361E+01
  weight for this iteration     100.00

 eigenvalues of (default mixing * dielectric matrix)
  average eigenvalue GAMMA=   0.6169
  0.7612  0.4725

 Free energy of the ion-electron system (eV)
  ---------------------------------------------------
  alpha Z        PSCENC =      2354.90822533
  Ewald energy   TEWEN  =    -62456.16387531
  -Hartree energ DENC   =    -42853.66691397
  -exchange      EXHF   =         0.00000000
  -V(xc)+E(xc)   XCENC  =      3278.97396232
  PAW double counting   =     99827.19075962  -103343.08182982
  entropy T*S    EENTRO =         0.00000000
  eigenvalues    EBANDS =    -11158.12454076
  atomic energy  EATOM  =    114020.06510763
  Solvation  Ediel_sol  =         0.00000000
  ---------------------------------------------------
  free energy    TOTEN  =      -329.89910496 eV

  energy without entropy =     -329.89910496  energy(sigma->0) =     -329.89910496


--------------------------------------------------------------------------------------------------------




--------------------------------------- Iteration      1(   8)  ---------------------------------------


    POTLOK:  cpu time    0.1451: real time    0.1460
    SETDIJ:  cpu time    0.0130: real time    0.0130
     EDDAV:  cpu time  561.1485: real time  564.8838
 BZINTS: Fermi energy:  5.079370;688.000000 electrons
         Band energy:***********;  BLOECHL correction:  0.000000
       DOS:  cpu time    0.0475: real time    0.0477
    CHARGE:  cpu time    4.0215: real time    4.0461
    MIXING:  cpu time    0.0013: real time    0.0013
    --------------------------------------------
      LOOP:  cpu time  565.3768: real time  569.1379

 eigenvalue-minimisations  : 82176
 total energy-change (2. order) : 0.2541698E+00  (-0.3332368E+01)
 number of electron     688.0000438 magnetization      -0.0000000
 augmentation part      281.4592909 magnetization      -0.0000000

 Broyden mixing:
  rms(total) = 0.31352E+01    rms(broyden)= 0.31352E+01
  rms(prec ) = 0.33697E+01
  weight for this iteration     100.00

 eigenvalues of (default mixing * dielectric matrix)
  average eigenvalue GAMMA=   0.8934
  1.6021  0.6197  0.4585

 Free energy of the ion-electron system (eV)
  ---------------------------------------------------
  alpha Z        PSCENC =      2354.90822533
  Ewald energy   TEWEN  =    -62456.16387531
  -Hartree energ DENC   =    -43111.21996217
  -exchange      EXHF   =         0.00000000
  -V(xc)+E(xc)   XCENC  =      3291.04620131
  PAW double counting   =    105324.53288481  -108940.28433274
  entropy T*S    EENTRO =         0.00000000
  eigenvalues    EBANDS =    -10812.52918399
  atomic energy  EATOM  =    114020.06510763
  Solvation  Ediel_sol  =         0.00000000
  ---------------------------------------------------
  free energy    TOTEN  =      -329.64493513 eV

  energy without entropy =     -329.64493513  energy(sigma->0) =     -329.64493513


--------------------------------------------------------------------------------------------------------




--------------------------------------- Iteration      1(   9)  ---------------------------------------


    POTLOK:  cpu time    0.1456: real time    0.1465
    SETDIJ:  cpu time    0.0131: real time    0.0131
     EDDAV:  cpu time  454.8891: real time  458.1735
 BZINTS: Fermi energy:  4.552476;688.000000 electrons
         Band energy:***********;  BLOECHL correction:  0.000000
       DOS:  cpu time    0.0512: real time    0.0517
    CHARGE:  cpu time    3.9634: real time    3.9888
    MIXING:  cpu time    0.0132: real time    0.2726
    --------------------------------------------
      LOOP:  cpu time  459.0758: real time  462.6464

 eigenvalue-minimisations  : 75520
 total energy-change (2. order) :-0.1937170E+01  (-0.9268301E+01)
 number of electron     688.0000435 magnetization      -0.0000000
 augmentation part      282.1126448 magnetization      -0.0000000

 Broyden mixing:
  rms(total) = 0.23134E+01    rms(broyden)= 0.23134E+01
  rms(prec ) = 0.27539E+01
  weight for this iteration     100.00

 eigenvalues of (default mixing * dielectric matrix)
  average eigenvalue GAMMA=   0.9819
  2.3973  0.5956  0.5956  0.3390

 Free energy of the ion-electron system (eV)
  ---------------------------------------------------
  alpha Z        PSCENC =      2354.90822533
  Ewald energy   TEWEN  =    -62456.16387531
  -Hartree energ DENC   =    -42898.64290827
  -exchange      EXHF   =         0.00000000
  -V(xc)+E(xc)   XCENC  =      3284.01733547
  PAW double counting   =    109920.06661560  -113573.98009878
  entropy T*S    EENTRO =         0.00000000
  eigenvalues    EBANDS =    -10981.85250682
  atomic energy  EATOM  =    114020.06510763
  Solvation  Ediel_sol  =         0.00000000
  ---------------------------------------------------
  free energy    TOTEN  =      -331.58210516 eV

  energy without entropy =     -331.58210516  energy(sigma->0) =     -331.58210516


--------------------------------------------------------------------------------------------------------




--------------------------------------- Iteration      1(  10)  ---------------------------------------


    POTLOK:  cpu time    0.1508: real time    0.1537
    SETDIJ:  cpu time    0.0155: real time    0.0157
     EDDAV:  cpu time  538.0281: real time  541.6579
 BZINTS: Fermi energy:  4.776950;688.000000 electrons
         Band energy:***********;  BLOECHL correction:  0.000000
       DOS:  cpu time    0.0401: real time    0.0403
    CHARGE:  cpu time    3.9552: real time    3.9801
    MIXING:  cpu time    0.0014: real time    0.0014
    --------------------------------------------
      LOOP:  cpu time  542.1910: real time  545.8489

 eigenvalue-minimisations  : 81920
 total energy-change (2. order) : 0.3583336E+01  (-0.2164397E+01)
 number of electron     688.0000435 magnetization       0.0000000
 augmentation part      282.3866428 magnetization       0.0000000

 Broyden mixing:
  rms(total) = 0.28553E+00    rms(broyden)= 0.28547E+00
  rms(prec ) = 0.30217E+00
  weight for this iteration     100.00

 eigenvalues of (default mixing * dielectric matrix)
  average eigenvalue GAMMA=   0.9176
  2.3647  0.7580  0.5692  0.5692  0.3271

 Free energy of the ion-electron system (eV)
  ---------------------------------------------------
  alpha Z        PSCENC =      2354.90822533
  Ewald energy   TEWEN  =    -62456.16387531
  -Hartree energ DENC   =    -42931.16523705
  -exchange      EXHF   =         0.00000000
  -V(xc)+E(xc)   XCENC  =      3287.37832509
  PAW double counting   =    113303.12722580  -117000.57873769
  entropy T*S    EENTRO =         0.00000000
  eigenvalues    EBANDS =    -10905.56980321
  atomic energy  EATOM  =    114020.06510763
  Solvation  Ediel_sol  =         0.00000000
  ---------------------------------------------------
  free energy    TOTEN  =      -327.99876941 eV

  energy without entropy =     -327.99876941  energy(sigma->0) =     -327.99876941


--------------------------------------------------------------------------------------------------------




--------------------------------------- Iteration      1(  11)  ---------------------------------------


    POTLOK:  cpu time    0.1425: real time    0.1432
    SETDIJ:  cpu time    0.0129: real time    0.0130
     EDDAV:  cpu time  522.2485: real time  525.7614
 BZINTS: Fermi energy:  5.006217;688.000000 electrons
         Band energy:***********;  BLOECHL correction:  0.000000
       DOS:  cpu time    0.0477: real time    0.0479
    CHARGE:  cpu time    4.0025: real time    4.0275
    MIXING:  cpu time    0.0015: real time    0.0015
    --------------------------------------------
      LOOP:  cpu time  526.4556: real time  529.9945

 eigenvalue-minimisations  : 79616
 total energy-change (2. order) :-0.1258017E+00  (-0.1062462E+00)
 number of electron     688.0000434 magnetization       0.0000000
 augmentation part      282.3531754 magnetization       0.0000000

 Broyden mixing:
  rms(total) = 0.35165E+00    rms(broyden)= 0.35163E+00
  rms(prec ) = 0.38731E+00
  weight for this iteration     100.00

 eigenvalues of (default mixing * dielectric matrix)
  average eigenvalue GAMMA=   0.9028
  2.2596  0.7439  0.7439  0.7343  0.5912  0.3437

 Free energy of the ion-electron system (eV)
  ---------------------------------------------------
  alpha Z        PSCENC =      2354.90822533
  Ewald energy   TEWEN  =    -62456.16387531
  -Hartree energ DENC   =    -42947.33057707
  -exchange      EXHF   =         0.00000000
  -V(xc)+E(xc)   XCENC  =      3287.04361551
  PAW double counting   =    113092.28998739  -116789.76145278
  entropy T*S    EENTRO =         0.00000000
  eigenvalues    EBANDS =    -10889.17560182
  atomic energy  EATOM  =    114020.06510763
  Solvation  Ediel_sol  =         0.00000000
  ---------------------------------------------------
  free energy    TOTEN  =      -328.12457111 eV

  energy without entropy =     -328.12457111  energy(sigma->0) =     -328.12457111


--------------------------------------------------------------------------------------------------------




--------------------------------------- Iteration      1(  12)  ---------------------------------------


    POTLOK:  cpu time    0.1434: real time    0.1441
    SETDIJ:  cpu time    0.0128: real time    0.0128
     EDDAV:  cpu time  549.0118: real time  552.6605
 BZINTS: Fermi energy:  4.986284;688.000000 electrons
         Band energy:***********;  BLOECHL correction:  0.000000
       DOS:  cpu time    0.0478: real time    0.0480
    CHARGE:  cpu time    3.9762: real time    4.0005
    MIXING:  cpu time    0.0015: real time    0.0015
    --------------------------------------------
      LOOP:  cpu time  553.1934: real time  556.8674

 eigenvalue-minimisations  : 81920
 total energy-change (2. order) : 0.1232807E-01  (-0.4718479E-01)
 number of electron     688.0000434 magnetization       0.0000000
 augmentation part      282.2522593 magnetization       0.0000000

 Broyden mixing:
  rms(total) = 0.13493E+00    rms(broyden)= 0.13493E+00
  rms(prec ) = 0.14890E+00
  weight for this iteration     100.00

 eigenvalues of (default mixing * dielectric matrix)
  average eigenvalue GAMMA=   0.9375
  2.2793  1.0640  1.0640  0.6143  0.6143  0.5825  0.3438

 Free energy of the ion-electron system (eV)
  ---------------------------------------------------
  alpha Z        PSCENC =      2354.90822533
  Ewald energy   TEWEN  =    -62456.16387531
  -Hartree energ DENC   =    -42946.31332091
  -exchange      EXHF   =         0.00000000
  -V(xc)+E(xc)   XCENC  =      3286.56917447
  PAW double counting   =    112702.58552685  -116397.17592967
  entropy T*S    EENTRO =         0.00000000
  eigenvalues    EBANDS =    -10892.58715142
  atomic energy  EATOM  =    114020.06510763
  Solvation  Ediel_sol  =         0.00000000
  ---------------------------------------------------
  free energy    TOTEN  =      -328.11224304 eV

  energy without entropy =     -328.11224304  energy(sigma->0) =     -328.11224304


--------------------------------------------------------------------------------------------------------




--------------------------------------- Iteration      1(  13)  ---------------------------------------


    POTLOK:  cpu time    0.1423: real time    0.1432
    SETDIJ:  cpu time    0.0131: real time    0.0132
     EDDAV:  cpu time  490.9398: real time  494.2831
 BZINTS: Fermi energy:  4.988738;688.000000 electrons
         Band energy:***********;  BLOECHL correction:  0.000000
       DOS:  cpu time    0.0477: real time    0.0480
    CHARGE:  cpu time    3.9722: real time    3.9970
    MIXING:  cpu time    0.0016: real time    0.0017
    --------------------------------------------
      LOOP:  cpu time  495.1167: real time  498.4860

 eigenvalue-minimisations  : 76800
 total energy-change (2. order) :-0.4552051E-02  (-0.5060355E-02)
 number of electron     688.0000434 magnetization       0.0000000
 augmentation part      282.2529893 magnetization       0.0000000

 Broyden mixing:
  rms(total) = 0.94453E-01    rms(broyden)= 0.94452E-01
  rms(prec ) = 0.95925E-01
  weight for this iteration     100.00

 eigenvalues of (default mixing * dielectric matrix)
  average eigenvalue GAMMA=   1.1245
  2.5401  2.5401  0.3439  0.8441  0.8441  0.6480  0.6480  0.5881

 Free energy of the ion-electron system (eV)
  ---------------------------------------------------
  alpha Z        PSCENC =      2354.90822533
  Ewald energy   TEWEN  =    -62456.16387531
  -Hartree energ DENC   =    -42952.93921220
  -exchange      EXHF   =         0.00000000
  -V(xc)+E(xc)   XCENC  =      3286.64005726
  PAW double counting   =    112445.12602625  -116139.61282584
  entropy T*S    EENTRO =         0.00000000
  eigenvalues    EBANDS =    -10886.14029820
  atomic energy  EATOM  =    114020.06510763
  Solvation  Ediel_sol  =         0.00000000
  ---------------------------------------------------
  free energy    TOTEN  =      -328.11679509 eV

  energy without entropy =     -328.11679509  energy(sigma->0) =     -328.11679509


--------------------------------------------------------------------------------------------------------




--------------------------------------- Iteration      1(  14)  ---------------------------------------


    POTLOK:  cpu time    0.1422: real time    0.1429
    SETDIJ:  cpu time    0.0128: real time    0.0129
     EDDAV:  cpu time  632.8363: real time  636.9628
 BZINTS: Fermi energy:  4.990644;688.000000 electrons
         Band energy:***********;  BLOECHL correction:  0.000000
       DOS:  cpu time    0.0475: real time    0.0477
    CHARGE:  cpu time    3.9683: real time    3.9961
    MIXING:  cpu time    0.0018: real time    0.0018
    --------------------------------------------
      LOOP:  cpu time  637.0089: real time  641.1642

 eigenvalue-minimisations  : 88320
 total energy-change (2. order) :-0.9371013E-02  (-0.4645750E-02)
 number of electron     688.0000433 magnetization       0.0000000
 augmentation part      282.2123575 magnetization       0.0000000

 Broyden mixing:
  rms(total) = 0.39139E-01    rms(broyden)= 0.39133E-01
  rms(prec ) = 0.43733E-01
  weight for this iteration     100.00

 eigenvalues of (default mixing * dielectric matrix)
  average eigenvalue GAMMA=   1.0510
  2.3527  2.3527  0.9414  0.9414  0.3439  0.6398  0.6398  0.5729  0.6743

 Free energy of the ion-electron system (eV)
  ---------------------------------------------------
  alpha Z        PSCENC =      2354.90822533
  Ewald energy   TEWEN  =    -62456.16387531
  -Hartree energ DENC   =    -42961.11183787
  -exchange      EXHF   =         0.00000000
  -V(xc)+E(xc)   XCENC  =      3286.44564148
  PAW double counting   =    112154.55652584  -115848.66411369
  entropy T*S    EENTRO =         0.00000000
  eigenvalues    EBANDS =    -10878.16183952
  atomic energy  EATOM  =    114020.06510763
  Solvation  Ediel_sol  =         0.00000000
  ---------------------------------------------------
  free energy    TOTEN  =      -328.12616610 eV

  energy without entropy =     -328.12616610  energy(sigma->0) =     -328.12616610


--------------------------------------------------------------------------------------------------------




--------------------------------------- Iteration      1(  15)  ---------------------------------------


    POTLOK:  cpu time    0.1430: real time    0.1438
    SETDIJ:  cpu time    0.0132: real time    0.0133
     EDDAV:  cpu time  384.7274: real time  387.4585
[...]
   -.422E+02 0.612E+00 -.490E-01   0.430E+02 -.616E+00 0.496E-01   -.862E+00 0.396E-02 -.627E-03   -.416E-04 -.220E-06 -.645E-07
   -.422E+02 0.612E+00 -.490E-01   0.430E+02 -.616E+00 0.496E-01   -.862E+00 0.396E-02 -.627E-03   -.416E-04 -.220E-06 -.645E-07
   -.422E+02 0.612E+00 -.490E-01   0.430E+02 -.616E+00 0.496E-01   -.862E+00 0.396E-02 -.627E-03   -.416E-04 -.220E-06 -.645E-07
   -.422E+02 0.612E+00 -.490E-01   0.430E+02 -.616E+00 0.496E-01   -.862E+00 0.396E-02 -.627E-03   -.416E-04 -.220E-06 -.645E-07
   0.422E+02 0.612E+00 0.490E-01   -.430E+02 -.616E+00 -.496E-01   0.862E+00 0.396E-02 0.627E-03   0.416E-04 -.220E-06 0.645E-07
   0.422E+02 0.612E+00 0.490E-01   -.430E+02 -.616E+00 -.496E-01   0.862E+00 0.396E-02 0.627E-03   0.416E-04 -.220E-06 0.645E-07
   0.422E+02 0.612E+00 0.490E-01   -.430E+02 -.616E+00 -.496E-01   0.862E+00 0.396E-02 0.627E-03   0.416E-04 -.220E-06 0.645E-07
   0.422E+02 0.612E+00 0.490E-01   -.430E+02 -.616E+00 -.496E-01   0.862E+00 0.396E-02 0.627E-03   0.416E-04 -.220E-06 0.645E-07
   0.432E-07 -.417E+02 0.229E-06   -.711E-13 0.426E+02 -.888E-13   0.151E-17 -.858E+00 0.542E-19   -.268E-12 -.413E-04 0.175E-12
   0.432E-07 -.417E+02 0.229E-06   -.586E-13 0.426E+02 -.115E-12   -.357E-17 -.858E+00 -.163E-18   0.835E-13 -.413E-04 0.224E-12
   0.432E-07 -.417E+02 0.229E-06   -.853E-13 0.426E+02 -.142E-12   -.244E-17 -.858E+00 0.434E-18   -.281E-12 -.413E-04 0.191E-12
   0.432E-07 -.417E+02 0.229E-06   -.711E-13 0.426E+02 -.110E-12   0.355E-17 -.858E+00 -.217E-18   0.786E-13 -.413E-04 0.244E-12
   0.367E-07 0.426E+02 -.222E-06   -.711E-14 -.435E+02 0.675E-13   -.730E-18 0.866E+00 0.130E-17   -.353E-13 0.420E-04 0.145E-12
   0.367E-07 0.426E+02 -.222E-06   -.142E-13 -.435E+02 0.817E-13   0.438E-18 0.866E+00 -.260E-17   -.385E-13 0.420E-04 0.207E-12
   0.367E-07 0.426E+02 -.222E-06   0.213E-13 -.435E+02 0.128E-12   0.109E-17 0.866E+00 -.325E-17   -.271E-13 0.420E-04 0.159E-12
   0.367E-07 0.426E+02 -.222E-06   0.000E+00 -.435E+02 0.114E-12   -.320E-17 0.866E+00 0.390E-17   0.286E-14 0.420E-04 0.272E-12
   0.125E+00 -.580E+00 0.866E-02   -.123E+00 0.557E+00 -.886E-02   -.162E-02 0.233E-01 0.157E-03   -.163E-05 0.383E-06 -.679E-08
   0.125E+00 -.580E+00 0.866E-02   -.123E+00 0.557E+00 -.886E-02   -.162E-02 0.233E-01 0.157E-03   -.163E-05 0.383E-06 -.679E-08
   0.125E+00 -.580E+00 0.866E-02   -.123E+00 0.557E+00 -.886E-02   -.162E-02 0.233E-01 0.157E-03   -.163E-05 0.383E-06 -.679E-08
   0.125E+00 -.580E+00 0.866E-02   -.123E+00 0.557E+00 -.886E-02   -.162E-02 0.233E-01 0.157E-03   -.163E-05 0.383E-06 -.679E-08
   -.125E+00 -.580E+00 -.865E-02   0.123E+00 0.557E+00 0.886E-02   0.162E-02 0.233E-01 -.157E-03   0.163E-05 0.383E-06 0.679E-08
   -.125E+00 -.580E+00 -.865E-02   0.123E+00 0.557E+00 0.886E-02   0.162E-02 0.233E-01 -.157E-03   0.163E-05 0.383E-06 0.679E-08
   -.125E+00 -.580E+00 -.865E-02   0.123E+00 0.557E+00 0.886E-02   0.162E-02 0.233E-01 -.157E-03   0.163E-05 0.383E-06 0.679E-08
   -.125E+00 -.580E+00 -.865E-02   0.123E+00 0.557E+00 0.886E-02   0.162E-02 0.233E-01 -.157E-03   0.163E-05 0.383E-06 0.679E-08
   0.125E+00 -.580E+00 0.866E-02   -.123E+00 0.557E+00 -.886E-02   -.162E-02 0.233E-01 0.157E-03   -.163E-05 0.383E-06 -.679E-08
   0.125E+00 -.580E+00 0.866E-02   -.123E+00 0.557E+00 -.886E-02   -.162E-02 0.233E-01 0.157E-03   -.163E-05 0.383E-06 -.679E-08
   0.125E+00 -.580E+00 0.866E-02   -.123E+00 0.557E+00 -.886E-02   -.162E-02 0.233E-01 0.157E-03   -.163E-05 0.383E-06 -.679E-08
   0.125E+00 -.580E+00 0.866E-02   -.123E+00 0.557E+00 -.886E-02   -.162E-02 0.233E-01 0.157E-03   -.163E-05 0.383E-06 -.679E-08
   -.125E+00 -.580E+00 -.865E-02   0.123E+00 0.557E+00 0.886E-02   0.162E-02 0.233E-01 -.157E-03   0.163E-05 0.383E-06 0.679E-08
   -.125E+00 -.580E+00 -.865E-02   0.123E+00 0.557E+00 0.886E-02   0.162E-02 0.233E-01 -.157E-03   0.163E-05 0.383E-06 0.679E-08
   -.125E+00 -.580E+00 -.865E-02   0.123E+00 0.557E+00 0.886E-02   0.162E-02 0.233E-01 -.157E-03   0.163E-05 0.383E-06 0.679E-08
   -.125E+00 -.580E+00 -.865E-02   0.123E+00 0.557E+00 0.886E-02   0.162E-02 0.233E-01 -.157E-03   0.163E-05 0.383E-06 0.679E-08
   -.150E+00 -.560E+00 0.966E-02   0.147E+00 0.529E+00 -.991E-02   0.316E-02 0.309E-01 0.118E-03   0.201E-05 -.494E-05 0.846E-07
   -.150E+00 -.560E+00 0.966E-02   0.147E+00 0.529E+00 -.991E-02   0.316E-02 0.309E-01 0.118E-03   0.201E-05 -.494E-05 0.846E-07
   -.150E+00 -.560E+00 0.966E-02   0.147E+00 0.529E+00 -.991E-02   0.316E-02 0.309E-01 0.118E-03   0.201E-05 -.494E-05 0.846E-07
   -.150E+00 -.560E+00 0.966E-02   0.147E+00 0.529E+00 -.991E-02   0.316E-02 0.309E-01 0.118E-03   0.201E-05 -.494E-05 0.846E-07
   0.150E+00 -.560E+00 -.966E-02   -.147E+00 0.529E+00 0.991E-02   -.316E-02 0.309E-01 -.118E-03   -.201E-05 -.494E-05 -.847E-07
   0.150E+00 -.560E+00 -.966E-02   -.147E+00 0.529E+00 0.991E-02   -.316E-02 0.309E-01 -.118E-03   -.201E-05 -.494E-05 -.847E-07
   0.150E+00 -.560E+00 -.966E-02   -.147E+00 0.529E+00 0.991E-02   -.316E-02 0.309E-01 -.118E-03   -.201E-05 -.494E-05 -.847E-07
   0.150E+00 -.560E+00 -.966E-02   -.147E+00 0.529E+00 0.991E-02   -.316E-02 0.309E-01 -.118E-03   -.201E-05 -.494E-05 -.847E-07
   -.150E+00 -.560E+00 0.966E-02   0.147E+00 0.529E+00 -.991E-02   0.316E-02 0.309E-01 0.118E-03   0.201E-05 -.494E-05 0.846E-07
   -.150E+00 -.560E+00 0.966E-02   0.147E+00 0.529E+00 -.991E-02   0.316E-02 0.309E-01 0.118E-03   0.201E-05 -.494E-05 0.846E-07
   -.150E+00 -.560E+00 0.966E-02   0.147E+00 0.529E+00 -.991E-02   0.316E-02 0.309E-01 0.118E-03   0.201E-05 -.494E-05 0.846E-07
   -.150E+00 -.560E+00 0.966E-02   0.147E+00 0.529E+00 -.991E-02   0.316E-02 0.309E-01 0.118E-03   0.201E-05 -.494E-05 0.846E-07
   0.150E+00 -.560E+00 -.966E-02   -.147E+00 0.529E+00 0.991E-02   -.316E-02 0.309E-01 -.118E-03   -.201E-05 -.494E-05 -.846E-07
   0.150E+00 -.560E+00 -.966E-02   -.147E+00 0.529E+00 0.991E-02   -.316E-02 0.309E-01 -.118E-03   -.201E-05 -.494E-05 -.846E-07
   0.150E+00 -.560E+00 -.966E-02   -.147E+00 0.529E+00 0.991E-02   -.316E-02 0.309E-01 -.118E-03   -.201E-05 -.494E-05 -.846E-07
   0.150E+00 -.560E+00 -.966E-02   -.147E+00 0.529E+00 0.991E-02   -.316E-02 0.309E-01 -.118E-03   -.201E-05 -.494E-05 -.846E-07
 -----------------------------------------------------------------------------------------------
   0.624E-06 -.991E+00 0.373E-04   -.295E-12 -.575E-13 0.266E-12   -.875E-15 0.990E+00 -.436E-17   -.717E-11 -.714E-04 0.638E-12
 
 
 POSITION                                       TOTAL-FORCE (eV/Angst)
 -----------------------------------------------------------------------------------
      1.32780      1.31335      1.30270         0.000008     -0.000078      0.000045
      6.58575      1.31335      1.30729         0.000008     -0.000078      0.000045
      1.32780      6.57133      1.30270         0.000008     -0.000078      0.000045
      6.58575      6.57133      1.30729         0.000008     -0.000078      0.000045
      3.93242      3.94234      1.30460        -0.000008     -0.000078     -0.000045
      9.19037      3.94234      1.30918        -0.000008     -0.000078     -0.000045
      3.93242      9.20032      1.30460        -0.000008     -0.000078     -0.000045
      9.19037      9.20032      1.30918        -0.000008     -0.000078     -0.000045
      1.32244      3.93052      9.11061        -0.000000      0.000014     -0.000000
      6.58038      3.93052      9.11520        -0.000000      0.000014     -0.000000
      1.32244      9.18850      9.11061        -0.000000      0.000014     -0.000000
      6.58038      9.18850      9.11520        -0.000000      0.000014     -0.000000
      3.95141      1.32585      9.11290        -0.000000     -0.000002     -0.000000
      9.20936      1.32585      9.11749        -0.000000     -0.000002     -0.000000
      3.95141      6.58383      9.11290        -0.000000     -0.000002     -0.000000
      9.20936      6.58383      9.11749        -0.000000     -0.000002     -0.000000
      1.30799      1.31335      6.50771        -0.000008     -0.000078     -0.000045
      6.56593      1.31335      6.51230        -0.000008     -0.000078     -0.000045
      1.30799      6.57133      6.50771        -0.000008     -0.000078     -0.000045
      6.56593      6.57133      6.51230        -0.000008     -0.000078     -0.000045
      3.96132      3.94234      6.51040         0.000008     -0.000078      0.000045
      9.21926      3.94234      6.51499         0.000008     -0.000078      0.000045
      3.96132      9.20032      6.51040         0.000008     -0.000078      0.000045
      9.21926      9.20032      6.51499         0.000008     -0.000078      0.000045
      3.94687      1.30153      3.90750        -0.000000      0.000014     -0.000000
      9.20481      1.30153      3.91209        -0.000000      0.000014     -0.000000
      3.94687      6.55951      3.90750        -0.000000      0.000014     -0.000000
      9.20481      6.55951      3.91209        -0.000000      0.000014     -0.000000
      1.31789      3.95484      3.90520        -0.000000     -0.000002     -0.000000
      6.57584      3.95484      3.90979        -0.000000     -0.000002     -0.000000
      1.31789      9.21282      3.90520        -0.000000     -0.000002     -0.000000
      6.57584      9.21282      3.90979        -0.000000     -0.000002     -0.000000
     10.52008      0.00099      5.21458        -0.000054      0.000101     -0.000049
      5.26213      0.00099      5.21000        -0.000054      0.000101     -0.000049
     10.52008      5.25897      5.21458        -0.000054      0.000101     -0.000049
      5.26213      5.25897      5.21000        -0.000054      0.000101     -0.000049
      2.63160      0.00099      2.60500         0.000054      0.000101      0.000049
      7.88955      0.00099      2.60959         0.000054      0.000101      0.000049
      2.63160      5.25897      2.60500         0.000054      0.000101      0.000049
      7.88955      5.25897      2.60959         0.000054      0.000101      0.000049
      2.62862      2.62998      0.00229        -0.000054      0.000101     -0.000049
      7.88656      2.62998      0.00688        -0.000054      0.000101     -0.000049
      2.62862      7.88796      0.00229        -0.000054      0.000101     -0.000049
      7.88656      7.88796      0.00688        -0.000054      0.000101     -0.000049
      0.00717      2.62998      7.80811         0.000054      0.000101      0.000049
      5.26512      2.62998      7.81270         0.000054      0.000101      0.000049
      0.00717      7.88796      7.80811         0.000054      0.000101      0.000049
      5.26512      7.88796      7.81270         0.000054      0.000101      0.000049
     10.51572      0.00097      0.00920         0.000049     -0.000029     -0.000135
      5.25777      0.00097      0.00461         0.000049     -0.000029     -0.000135
     10.51572      5.25895      0.00920         0.000049     -0.000029     -0.000135
      5.25777      5.25895      0.00461         0.000049     -0.000029     -0.000135
      2.63597      0.00097      7.81038        -0.000049     -0.000029      0.000135
      7.89391      0.00097      7.81497        -0.000049     -0.000029      0.000135
      2.63597      5.25895      7.81038        -0.000049     -0.000029      0.000135
      7.89391      5.25895      7.81497        -0.000049     -0.000029      0.000135
      2.63334      2.62996      5.20772         0.000049     -0.000029     -0.000135
      7.89128      2.62996      5.21231         0.000049     -0.000029     -0.000135
      2.63334      7.88794      5.20772         0.000049     -0.000029     -0.000135
      7.89128      7.88794      5.21231         0.000049     -0.000029     -0.000135
      0.00245      2.62996      2.60268        -0.000049     -0.000029      0.000135
      5.26040      2.62996      2.60727        -0.000049     -0.000029      0.000135
      0.00245      7.88794      2.60268        -0.000049     -0.000029      0.000135
      5.26040      7.88794      2.60727        -0.000049     -0.000029      0.000135
 -----------------------------------------------------------------------------------
    total drift:                                0.000001     -0.000205      0.000037


--------------------------------------------------------------------------------------------------------



  FREE ENERGIE OF THE ION-ELECTRON SYSTEM (eV)
  ---------------------------------------------------
  free  energy   TOTEN  =      -328.12626794 eV

  energy  without entropy=     -328.12626794  energy(sigma->0) =     -328.12626794
 


--------------------------------------------------------------------------------------------------------


    POTLOK:  cpu time    0.1603: real time    0.1611


--------------------------------------------------------------------------------------------------------


 writing wavefunctions
     LOOP+:  cpu time13767.4786: real time13870.0718
    4ORBIT:  cpu time    0.0001: real time    0.0023
 


 total charge     
 
# of ion       s       p       d       tot
------------------------------------------
    1        1.313   2.410   0.000   3.724
    2        1.313   2.410   0.000   3.724
    3        1.313   2.410   0.000   3.724
    4        1.313   2.410   0.000   3.724
    5        1.313   2.410   0.000   3.724
    6        1.313   2.410   0.000   3.724
    7        1.313   2.410   0.000   3.724
    8        1.313   2.410   0.000   3.724
    9        1.313   2.410   0.000   3.724
   10        1.313   2.410   0.000   3.724
   11        1.313   2.410   0.000   3.724
   12        1.313   2.410   0.000   3.724
   13        1.313   2.410   0.000   3.724
   14        1.313   2.410   0.000   3.724
   15        1.313   2.410   0.000   3.724
   16        1.313   2.410   0.000   3.724
   17        1.313   2.410   0.000   3.724
   18        1.313   2.410   0.000   3.724
   19        1.313   2.410   0.000   3.724
   20        1.313   2.410   0.000   3.724
   21        1.313   2.410   0.000   3.724
   22        1.313   2.410   0.000   3.724
   23        1.313   2.410   0.000   3.724
   24        1.313   2.410   0.000   3.724
   25        1.313   2.410   0.000   3.724
   26        1.313   2.410   0.000   3.724
   27        1.313   2.410   0.000   3.724
   28        1.313   2.410   0.000   3.724
   29        1.313   2.410   0.000   3.724
   30        1.313   2.410   0.000   3.724
   31        1.313   2.410   0.000   3.724
   32        1.313   2.410   0.000   3.724
   33        0.260   6.202   8.917  15.378
   34        0.260   6.202   8.917  15.378
   35        0.260   6.202   8.917  15.378
   36        0.260   6.202   8.917  15.378
   37        0.260   6.202   8.917  15.378
   38        0.260   6.202   8.917  15.378
   39        0.260   6.202   8.917  15.378
   40        0.260   6.202   8.917  15.378
   41        0.260   6.202   8.917  15.378
   42        0.260   6.202   8.917  15.378
   43        0.260   6.202   8.917  15.378
   44        0.260   6.202   8.917  15.378
   45        0.260   6.202   8.917  15.378
   46        0.260   6.202   8.917  15.378
   47        0.260   6.202   8.917  15.378
   48        0.260   6.202   8.917  15.378
   49        0.350   6.351   5.820  12.521
   50        0.350   6.351   5.820  12.521
   51        0.350   6.351   5.820  12.521
   52        0.350   6.351   5.820  12.521
   53        0.350   6.351   5.820  12.521
   54        0.350   6.351   5.820  12.521
   55        0.350   6.351   5.820  12.521
   56        0.350   6.351   5.820  12.521
   57        0.350   6.351   5.820  12.521
   58        0.350   6.351   5.820  12.521
   59        0.350   6.351   5.820  12.521
   60        0.350   6.351   5.820  12.521
   61        0.350   6.351   5.820  12.521
   62        0.350   6.351   5.820  12.521
   63        0.350   6.351   5.820  12.521
   64        0.350   6.351   5.820  12.521
--------------------------------------------------
tot         51.790 277.975 235.777 565.542
 


 magnetization (x)
 
# of ion       s       p       d       tot
------------------------------------------
    1        0.000  -0.001   0.000  -0.001
    2        0.000  -0.001   0.000  -0.001
    3        0.000  -0.001   0.000  -0.001
    4        0.000  -0.001   0.000  -0.001
    5        0.000   0.000   0.000   0.000
    6        0.000   0.000   0.000   0.000
    7        0.000   0.000   0.000   0.000
    8        0.000   0.000   0.000   0.000
    9       -0.000   0.000   0.000   0.000
   10       -0.000   0.000   0.000   0.000
   11       -0.000   0.000   0.000   0.000
   12       -0.000   0.000   0.000   0.000
   13       -0.000   0.000   0.000   0.000
   14       -0.000   0.000   0.000   0.000
   15       -0.000   0.000   0.000   0.000
   16       -0.000   0.000   0.000   0.000
   17        0.000   0.000   0.000   0.000
   18        0.000   0.000   0.000   0.000
   19        0.000   0.000   0.000   0.000
   20        0.000   0.000   0.000   0.000
   21        0.000  -0.001   0.000  -0.001
   22        0.000  -0.001   0.000  -0.001
   23        0.000  -0.001   0.000  -0.001
   24        0.000  -0.001   0.000  -0.001
   25       -0.000   0.000   0.000   0.000
   26       -0.000   0.000   0.000   0.000
   27       -0.000   0.000   0.000   0.000
   28       -0.000   0.000   0.000   0.000
   29       -0.000   0.000   0.000   0.000
   30       -0.000   0.000   0.000   0.000
   31       -0.000   0.000   0.000   0.000
   32       -0.000   0.000   0.000   0.000
   33        0.000   0.000  -0.001   0.000
   34        0.000   0.000  -0.001   0.000
   35        0.000   0.000  -0.001   0.000
   36        0.000   0.000  -0.001   0.000
   37       -0.000  -0.000   0.001  -0.000
   38       -0.000  -0.000   0.001  -0.000
   39       -0.000  -0.000   0.001  -0.000
   40       -0.000  -0.000   0.001  -0.000
   41        0.000   0.000  -0.001   0.000
   42        0.000   0.000  -0.001   0.000
   43        0.000   0.000  -0.001   0.000
   44        0.000   0.000  -0.001   0.000
   45       -0.000  -0.000   0.001  -0.000
   46       -0.000  -0.000   0.001  -0.000
   47       -0.000  -0.000   0.001  -0.000
   48       -0.000  -0.000   0.001  -0.000
   49        0.020   0.054   3.671   3.745
   50        0.020   0.054   3.671   3.745
   51        0.020   0.054   3.671   3.745
   52        0.020   0.054   3.671   3.745
   53       -0.020  -0.054  -3.671  -3.745
   54       -0.020  -0.054  -3.671  -3.745
   55       -0.020  -0.054  -3.671  -3.745
   56       -0.020  -0.054  -3.671  -3.745
   57        0.020   0.054   3.671   3.745
   58        0.020   0.054   3.671   3.745
   59        0.020   0.054   3.671   3.745
   60        0.020   0.054   3.671   3.745
   61       -0.020  -0.054  -3.671  -3.745
   62       -0.020  -0.054  -3.671  -3.745
   63       -0.020  -0.054  -3.671  -3.745
   64       -0.020  -0.054  -3.671  -3.745
--------------------------------------------------
tot         -0.000   0.000   0.000   0.000
 
 BZINTS: Fermi energy:  4.988926;688.000000 electrons
         Band energy:***********;  BLOECHL correction:  0.000000

 total amount of memory used by VASP MPI-rank0   881832. kBytes
=======================================================================

   base      :      30000. kBytes
   nonl-proj :     680181. kBytes
   fftplans  :       4588. kBytes
   grid      :      69719. kBytes
   one-center:       1990. kBytes
   wavefun   :      95354. kBytes
 
  
  
 General timing and accounting informations for this job:
 ========================================================
  
                  Total CPU time used (sec):    13920.670
                            User time (sec):    13891.244
                          System time (sec):       29.426
                         Elapsed time (sec):    14027.742
  
                   Maximum memory used (kb):     1491584.
                   Average memory used (kb):           0.
  
                          Minor page faults:      2537729
                          Major page faults:        37483
                 Voluntary context switches:        44463
