 vasp.5.4.4.18Apr17-6-g9f103f2a35 (build Oct 30 2023 17:49:44) complex          
  
 executed on             LinuxIFC date 2024.12.05  20:45:36
 running on  256 total cores
 distrk:  each k-point on  256 cores,    1 groups
 distr:  one band on NCORES_PER_BAND=   1 cores,  256 groups


--------------------------------------------------------------------------------------------------------


 INCAR:
 POTCAR:    PAW_PBE S 06Sep2000                   
 POTCAR:     PAW_PBE Cu_pv 06Sep2000              
 POTCAR:     PAW_PBE Fe_pv 02Aug2007              

 ----------------------------------------------------------------------------- 
|                                                                             |
|           W    W    AA    RRRRR   N    N  II  N    N   GGGG   !!!           |
|           W    W   A  A   R    R  NN   N  II  NN   N  G    G  !!!           |
|           W    W  A    A  R    R  N N  N  II  N N  N  G       !!!           |
|           W WW W  AAAAAA  RRRRR   N  N N  II  N  N N  G  GGG   !            |
|           WW  WW  A    A  R   R   N   NN  II  N   NN  G    G                |
|           W    W  A    A  R    R  N    N  II  N    N   GGGG   !!!           |
|                                                                             |
|      For optimal performance we recommend to set                            |
|        NCORE= 4 - approx SQRT( number of cores)                             |
|      NCORE specifies how many cores store one orbital (NPAR=cpu/NCORE).     |
|      This setting can  greatly improve the performance of VASP for DFT.     |
|      The default,   NCORE=1            might be grossly inefficient         |
|      on modern multi-core architectures or massively parallel machines.     |
|      Do your own testing !!!!                                               |
|      Unfortunately you need to use the default for GW and RPA calculations. |
|      (for HF NCORE is supported but not extensively tested yet)             |
|                                                                             |
 ----------------------------------------------------------------------------- 

 POTCAR:    PAW_PBE S 06Sep2000                   
   SHA256 =  0fc7481fb0695f01bdc6462160264c5c84044ae9ec85a907d398b887a2bc3132 S/
   COPYR  = (c) Copyright 06Sep2000 Georg Kresse                                
   COPYR  = This file is part of the software VASP. Any use, copying, and all ot
   COPYR  = If you do not have a valid VASP license, you may not use, copy or di
   VRHFIN =S : s2p4                                                             
   LEXCH  = PE                                                                  
   EATOM  =   276.8230 eV,   20.3459 Ry                                         
                                                                                
   TITEL  = PAW_PBE S 06Sep2000                                                 
   LULTRA =        F    use ultrasoft PP ?                                      
   IUNSCR =        1    unscreen: 0-lin 1-nonlin 2-no                           
   RPACOR =    1.500    partial core radius                                     
   POMASS =   32.066; ZVAL   =    6.000    mass and valenz                      
   RCORE  =    1.900    outmost cutoff radius                                   
   RWIGS  =    2.200; RWIGS  =    1.164    wigner-seitz radius (au A)           
   ENMAX  =  258.689; ENMIN  =  194.016 eV                                      
   ICORE  =        2    local potential                                         
   LCOR   =        T    correct aug charges                                     
   LPAW   =        T    paw PP                                                  
   EAUG   =  335.092                                                            
   DEXC   =    0.000                                                            
   RMAX   =    1.942    core radius for proj-oper                               
   RAUG   =    1.300    factor for augmentation sphere                          
   RDEP   =    1.954    radius for radial grids                                 
   RDEPT  =    1.744    core radius for aug-charge                              
                                                                                
   Atomic configuration                                                         
    6 entries                                                                   
     n  l   j            E        occ.                                          
     1  0  0.50     -2405.8406   2.0000                                         
     2  0  0.50      -211.7007   2.0000                                         
     2  1  1.50      -156.4958   6.0000                                         
     3  0  0.50       -17.2562   2.0000                                         
     3  1  0.50        -7.0085   4.0000                                         
     3  2  1.50        -6.8029   0.0000                                         
   Description                                                                  
     l       E           TYP  RCUT    TYP  RCUT                                 
     0    -17.2561641     23  1.900                                             
     0    -15.8743224     23  1.900                                             
     1     -7.0085400     23  1.900                                             
     1     -2.7779785     23  1.900                                             
     2     -6.8029130     23  1.900                                             
  local pseudopotential read in
  partial core-charges read in
  partial kinetic energy density read in
  atomic valenz-charges read in
  non local Contribution for L=           0  read in
    real space projection operators read in
  non local Contribution for L=           0  read in
    real space projection operators read in
  non local Contribution for L=           1  read in
    real space projection operators read in
  non local Contribution for L=           1  read in
    real space projection operators read in
    PAW grid and wavefunctions read in
 
   number of l-projection  operators is LMAX  =           4
   number of lm-projection operators is LMMAX =           8
 
 POTCAR:     PAW_PBE Cu_pv 06Sep2000              
   SHA256 =  cb7b504e2ea725fe1f25c85a9ac77d4012ce94cd394135b722c4e25ec297f1cb Cu
   COPYR  = (c) Copyright 06Sep2000 Georg Kresse                                
   COPYR  = This file is part of the software VASP. Any use, copying, and all ot
   COPYR  = If you do not have a valid VASP license, you may not use, copy or di
   VRHFIN =Cu: d10 p1                                                           
   LEXCH  = PE                                                                  
   EATOM  =  4120.1201 eV,  302.8203 Ry                                         
                                                                                
   TITEL  = PAW_PBE Cu_pv 06Sep2000                                             
   LULTRA =        F    use ultrasoft PP ?                                      
   IUNSCR =        1    unscreen: 0-lin 1-nonlin 2-no                           
   RPACOR =    1.500    partial core radius                                     
   POMASS =   63.546; ZVAL   =   17.000    mass and valenz                      
   RCORE  =    2.000    outmost cutoff radius                                   
   RWIGS  =    2.000; RWIGS  =    1.058    wigner-seitz radius (au A)           
   ENMAX  =  368.648; ENMIN  =  276.486 eV                                      
   RCLOC  =    1.304    cutoff for local pot                                    
   LCOR   =        T    correct aug charges                                     
   LPAW   =        T    paw PP                                                  
   EAUG   =  758.233                                                            
   DEXC   =    0.000                                                            
   RMAX   =    2.046    core radius for proj-oper                               
   RAUG   =    1.300    factor for augmentation sphere                          
   RDEP   =    2.025    radius for radial grids                                 
   RDEPT  =    1.558    core radius for aug-charge                              
                                                                                
   Atomic configuration                                                         
    8 entries                                                                   
     n  l   j            E        occ.                                          
     1  0  0.50     -8850.2467   2.0000                                         
     2  0  0.50     -1062.3498   2.0000                                         
     2  1  1.50      -916.8226   6.0000                                         
     3  0  0.50      -114.6929   2.0000                                         
     3  1  1.50       -72.1325   6.0000                                         
     3  2  2.50        -5.0394  10.0000                                         
     4  0  0.50        -4.6097   1.0000                                         
     4  3  2.50        -1.3606   0.0000                                         
   Description                                                                  
     l       E           TYP  RCUT    TYP  RCUT                                 
     1    -72.1324777     23  1.700                                             
     1     -1.3605826     23  1.700                                             
     2     -5.0393776     23  2.000                                             
     2     -6.3999602     23  2.000                                             
     0     -4.6097062     23  1.800                                             
     0     14.1620818     23  1.800                                             
  local pseudopotential read in
  partial core-charges read in
  partial kinetic energy density read in
  atomic valenz-charges read in
  non local Contribution for L=           1  read in
    real space projection operators read in
  non local Contribution for L=           1  read in
    real space projection operators read in
  non local Contribution for L=           2  read in
    real space projection operators read in
  non local Contribution for L=           2  read in
    real space projection operators read in
  non local Contribution for L=           0  read in
    real space projection operators read in
  non local Contribution for L=           0  read in
    real space projection operators read in
    PAW grid and wavefunctions read in
 
   number of l-projection  operators is LMAX  =           6
   number of lm-projection operators is LMMAX =          18
 
 POTCAR:     PAW_PBE Fe_pv 02Aug2007              
   SHA256 =  5d22e414b1f82158bf2c7ecb8b97b28fd0923e48cadc1c3bf74d524558f5dd32 Fe
   COPYR  = (c) Copyright 02Aug2007 Georg Kresse                                
   COPYR  = This file is part of the software VASP. Any use, copying, and all ot
   COPYR  = If you do not have a valid VASP license, you may not use, copy or di
   VRHFIN =Fe:  3pd7s1                                                          
   LEXCH  = PE                                                                  
   EATOM  =  2457.4239 eV,  180.6156 Ry                                         
                                                                                
   TITEL  = PAW_PBE Fe_pv 02Aug2007                                             
   LULTRA =        F    use ultrasoft PP ?                                      
   IUNSCR =        1    unscreen: 0-lin 1-nonlin 2-no                           
   RPACOR =    1.750    partial core radius                                     
   POMASS =   55.847; ZVAL   =   14.000    mass and valenz                      
   RCORE  =    2.200    outmost cutoff radius                                   
   RWIGS  =    2.200; RWIGS  =    1.164    wigner-seitz radius (au A)           
   ENMAX  =  293.238; ENMIN  =  219.928 eV                                      
   ICORE  =        3    local potential                                         
   LCOR   =        T    correct aug charges                                     
   LPAW   =        T    paw PP                                                  
   EAUG   =  578.342                                                            
   DEXC   =    0.000                                                            
   RMAX   =    2.249    core radius for proj-oper                               
   RAUG   =    1.300    factor for augmentation sphere                          
   RDEP   =    2.296    radius for radial grids                                 
   RDEPT  =    1.766    core radius for aug-charge                              
                                                                                
   Atomic configuration                                                         
    8 entries                                                                   
     n  l   j            E        occ.                                          
     1  0  0.50     -6993.8440   2.0000                                         
     2  0  0.50      -814.6047   2.0000                                         
     2  1  1.50      -693.3689   6.0000                                         
     3  0  0.50       -89.4732   2.0000                                         
     3  1  1.50       -55.6373   6.0000                                         
     3  2  2.50        -3.8151   7.0000                                         
     4  0  0.50        -4.2551   1.0000                                         
     4  3  2.50        -1.3606   0.0000                                         
   Description                                                                  
     l       E           TYP  RCUT    TYP  RCUT                                 
     1    -55.6372668     23  2.000                                             
     1     -5.4423304     23  2.000                                             
     2     -3.8151096     23  2.200                                             
     2     -5.1756922     23  2.200                                             
     0     -4.2550951     23  2.200                                             
     0     27.2116520     23  2.200                                             
     3     -1.3605826     23  2.200                                             
  local pseudopotential read in
  partial core-charges read in
  partial kinetic energy density read in
  atomic valenz-charges read in
  non local Contribution for L=           1  read in
    real space projection operators read in
  non local Contribution for L=           1  read in
    real space projection operators read in
  non local Contribution for L=           2  read in
    real space projection operators read in
  non local Contribution for L=           2  read in
    real space projection operators read in
  non local Contribution for L=           0  read in
    real space projection operators read in
  non local Contribution for L=           0  read in
    real space projection operators read in
    PAW grid and wavefunctions read in
 
   number of l-projection  operators is LMAX  =           6
   number of lm-projection operators is LMMAX =          18
 

 ----------------------------------------------------------------------------- 
|                                                                             |
|  ADVICE TO THIS USER RUNNING 'VASP/VAMP'   (HEAR YOUR MASTER'S VOICE ...):  |
|                                                                             |
|      You enforced a specific xc-type in the INCAR file,                     |
|      a different type was found on the POTCAR file                          |
|          I HOPE YOU KNOW, WHAT YOU ARE  DOING                               |
|                                                                             |
 ----------------------------------------------------------------------------- 

  PAW_PBE S 06Sep2000                   :
 energy of atom  1       EATOM= -276.8230
 kinetic energy error for atom=    0.0007 (will be added to EATOM!!)
   PAW_PBE Cu_pv 06Sep2000              :
 energy of atom  2       EATOM=-4120.1201
 kinetic energy error for atom=    0.0094 (will be added to EATOM!!)
   PAW_PBE Fe_pv 02Aug2007              :
 energy of atom  3       EATOM=-2457.4239
 kinetic energy error for atom=    0.0025 (will be added to EATOM!!)
 
 
 POSCAR: Fe4 Cu4 S8                              
  positions in direct lattice
  velocities in cartesian coordinates
 exchange correlation table for  LEXCH =       14
   RHO(1)=    0.500       N(1)  =     2000
   RHO(2)=  100.500       N(2)  =     4000
 


--------------------------------------------------------------------------------------------------------


 ion  position               nearest neighbor table
   1  0.253  0.232  0.126-  11 2.25  16 2.26  10 2.29  13 2.31
   2  0.747  0.732  0.124-  10 2.25  13 2.26  11 2.29  16 2.31
   3  0.250  0.738  0.875-  13 2.27  14 2.27  12 2.27  11 2.27
   4  0.750  0.240  0.875-  12 2.26  11 2.26  13 2.30  14 2.30
   5  0.247  0.232  0.624-  12 2.25  15 2.26   9 2.29  14 2.31
   6  0.753  0.732  0.626-   9 2.25  14 2.26  12 2.29  15 2.31
   7  0.750  0.238  0.375-  16 2.27  15 2.27  10 2.27   9 2.27
   8  0.250  0.740  0.375-   9 2.26  10 2.26  16 2.30  15 2.30
   9  0.993  0.014  0.500-   6 2.25   8 2.26   7 2.27   5 2.29
  10  0.507  0.014  0.250-   2 2.25   8 2.26   7 2.27   1 2.29
  11  0.493  0.514  0.000-   1 2.25   4 2.26   3 2.27   2 2.29
  12  0.007  0.514  0.750-   5 2.25   4 2.26   3 2.27   6 2.29
  13  0.996  0.015  0.001-   2 2.26   3 2.27   4 2.30   1 2.31
  14  0.504  0.015  0.749-   6 2.26   3 2.27   4 2.30   5 2.31
  15  0.496  0.515  0.501-   5 2.26   7 2.27   8 2.30   6 2.31
  16  0.004  0.515  0.249-   1 2.26   7 2.27   8 2.30   2 2.31
 
  LATTYP: Found a simple monoclinic cell.
 ALAT       =    12.2899047720
 B/A-ratio  =     0.4292084537
 C/A-ratio  =     1.8027382968
 COS(beta)  =    -0.9800360920
  
  Lattice vectors:
  
 A1 = (  -5.9684940000,   0.0000000000, -10.7433160000)
 A2 = (   0.0000000000,  -5.2749310235,   0.0000000000)
 A3 = (   6.6942110000,   0.0000000000,  21.1199650000)


Analysis of symmetry for initial positions (statically):
=====================================================================
 Subroutine PRICEL returns following result:
 
  LATTYP: Found a base centered monoclinic cell.
 ALAT       =    10.9819657022
 B/A-ratio  =     0.4803266707
 C/A-ratio  =     0.9471888500
 COS(beta)  =    -0.7937578229
  
  Lattice vectors:
  
 A1 = (  -2.2585300000,  -2.6374655117,   5.0049910000)
 A2 = (  -2.2585300000,   2.6374655117,   5.0049910000)
 A3 = (  -0.7257170000,   0.0000000000, -10.3766490000)
 
   2 primitive cells build up your supercell.
 

 Routine SETGRP: Setting up the symmetry group for a 
 simple monoclinic supercell.


 Subroutine GETGRP returns: Found  2 space group operations
 (whereof  1 operations were pure point group operations)
 out of a pool of  4 trial point group operations.


The static configuration has the point symmetry C_1 .
 The point group associated with its full space group is C_2 .


Analysis of symmetry for dynamics (positions and initial velocities):
=====================================================================
 Subroutine PRICEL returns following result:
 
  LATTYP: Found a base centered monoclinic cell.
 ALAT       =    10.9819657022
 B/A-ratio  =     0.4803266707
 C/A-ratio  =     0.9471888500
 COS(beta)  =    -0.7937578229
  
  Lattice vectors:
  
 A1 = (  -2.2585300000,  -2.6374655117,   5.0049910000)
 A2 = (  -2.2585300000,   2.6374655117,   5.0049910000)
 A3 = (  -0.7257170000,   0.0000000000, -10.3766490000)
 
   2 primitive cells build up your supercell.
 

 Routine SETGRP: Setting up the symmetry group for a 
 simple monoclinic supercell.


 Subroutine GETGRP returns: Found  2 space group operations
 (whereof  1 operations were pure point group operations)
 out of a pool of  4 trial point group operations.


The dynamic configuration has the point symmetry C_1 .
 The point group associated with its full space group is C_2 .


Analysis of structural, dynamic, and magnetic symmetry:
=====================================================================
 Subroutine PRICEL returns following result:
 
  LATTYP: Found a base centered monoclinic cell.
 ALAT       =    10.9819657022
 B/A-ratio  =     0.4803266707
 C/A-ratio  =     0.9471888500
 COS(beta)  =    -0.7937578229
  
  Lattice vectors:
  
 A1 = (  -2.2585300000,  -2.6374655117,   5.0049910000)
 A2 = (  -2.2585300000,   2.6374655117,   5.0049910000)
 A3 = (  -0.7257170000,   0.0000000000, -10.3766490000)
 
   2 primitive cells build up your supercell.
 

 Routine SETGRP: Setting up the symmetry group for a 
 simple monoclinic supercell.


 Subroutine GETGRP returns: Found  2 space group operations
 (whereof  1 operations were pure point group operations)
 out of a pool of  4 trial point group operations.


The (compounded) configuration has the point symmetry C_1 .
 The point group associated with its full space group is C_2 .


 Subroutine INISYM returns: Found  2 space group operations
 (whereof  1 operations are pure point group operations),
 and found     2 'primitive' translations

 
 
 KPOINTS: Automatic mesh                          

Automatic generation of k-mesh.
Space group operators:
 irot       det(A)        alpha          n_x          n_y          n_z        tau_x        tau_y        tau_z
    1     1.000000     0.000000     1.000000     0.000000     0.000000     0.000000     0.000000     0.000000
    2     1.000000   180.000000     0.000000     1.000000     0.000000    -0.500000     0.000000    -0.250000
 
 Subroutine IBZKPT returns following result:
 ===========================================
 
 Found     60 irreducible k-points:
 
 Following reciprocal coordinates:
            Coordinates               Weight
  0.000000  0.000000  0.000000      1.000000
  0.166667  0.000000  0.000000      2.000000
  0.333333  0.000000  0.000000      2.000000
  0.500000  0.000000  0.000000      1.000000
  0.000000  0.166667  0.000000      1.000000
  0.166667  0.166667  0.000000      2.000000
  0.333333  0.166667  0.000000      2.000000
  0.500000  0.166667  0.000000      1.000000
  0.000000  0.333333  0.000000      1.000000
  0.166667  0.333333  0.000000      2.000000
  0.333333  0.333333  0.000000      2.000000
  0.500000  0.333333  0.000000      1.000000
  0.000000  0.500000  0.000000      1.000000
  0.166667  0.500000  0.000000      2.000000
  0.333333  0.500000  0.000000      2.000000
  0.500000  0.500000  0.000000      1.000000
  0.000000 -0.333333  0.000000      1.000000
  0.166667 -0.333333  0.000000      2.000000
  0.333333 -0.333333  0.000000      2.000000
  0.500000 -0.333333  0.000000      1.000000
  0.000000 -0.166667  0.000000      1.000000
  0.166667 -0.166667  0.000000      2.000000
  0.333333 -0.166667  0.000000      2.000000
  0.500000 -0.166667  0.000000      1.000000
 -0.000000  0.000000  0.333333      2.000000
  0.166667  0.000000  0.333333      2.000000
  0.333333  0.000000  0.333333      2.000000
  0.500000  0.000000  0.333333      2.000000
 -0.333333  0.000000  0.333333      2.000000
 -0.166667  0.000000  0.333333      2.000000
 -0.000000  0.166667  0.333333      2.000000
  0.166667  0.166667  0.333333      2.000000
  0.333333  0.166667  0.333333      2.000000
  0.500000  0.166667  0.333333      2.000000
 -0.333333  0.166667  0.333333      2.000000
 -0.166667  0.166667  0.333333      2.000000
 -0.000000  0.333333  0.333333      2.000000
  0.166667  0.333333  0.333333      2.000000
  0.333333  0.333333  0.333333      2.000000
  0.500000  0.333333  0.333333      2.000000
 -0.333333  0.333333  0.333333      2.000000
 -0.166667  0.333333  0.333333      2.000000
 -0.000000  0.500000  0.333333      2.000000
  0.166667  0.500000  0.333333      2.000000
  0.333333  0.500000  0.333333      2.000000
  0.500000  0.500000  0.333333      2.000000
 -0.333333  0.500000  0.333333      2.000000
 -0.166667  0.500000  0.333333      2.000000
 -0.000000 -0.333333  0.333333      2.000000
  0.166667 -0.333333  0.333333      2.000000
  0.333333 -0.333333  0.333333      2.000000
  0.500000 -0.333333  0.333333      2.000000
 -0.333333 -0.333333  0.333333      2.000000
 -0.166667 -0.333333  0.333333      2.000000
 -0.000000 -0.166667  0.333333      2.000000
  0.166667 -0.166667  0.333333      2.000000
  0.333333 -0.166667  0.333333      2.000000
  0.500000 -0.166667  0.333333      2.000000
 -0.333333 -0.166667  0.333333      2.000000
 -0.166667 -0.166667  0.333333      2.000000
 
 Following cartesian coordinates:
            Coordinates               Weight
  0.000000  0.000000  0.000000      1.000000
  0.031946  0.000000 -0.002234      2.000000
  0.063892  0.000000 -0.004468      2.000000
  0.095838  0.000000 -0.006703      1.000000
  0.000000  0.031596  0.000000      1.000000
  0.031946  0.031596 -0.002234      2.000000
  0.063892  0.031596 -0.004468      2.000000
  0.095838  0.031596 -0.006703      1.000000
  0.000000  0.063192  0.000000      1.000000
  0.031946  0.063192 -0.002234      2.000000
  0.063892  0.063192 -0.004468      2.000000
  0.095838  0.063192 -0.006703      1.000000
  0.000000  0.094788  0.000000      1.000000
  0.031946  0.094788 -0.002234      2.000000
  0.063892  0.094788 -0.004468      2.000000
  0.095838  0.094788 -0.006703      1.000000
  0.000000 -0.063192  0.000000      1.000000
  0.031946 -0.063192 -0.002234      2.000000
  0.063892 -0.063192 -0.004468      2.000000
  0.095838 -0.063192 -0.006703      1.000000
  0.000000 -0.031596  0.000000      1.000000
  0.031946 -0.031596 -0.002234      2.000000
  0.063892 -0.031596 -0.004468      2.000000
  0.095838 -0.031596 -0.006703      1.000000
 -0.002258  0.000000  0.032281      2.000000
  0.029688  0.000000  0.030047      2.000000
  0.061634  0.000000  0.027813      2.000000
  0.093580  0.000000  0.025579      2.000000
 -0.066150  0.000000  0.036750      2.000000
 -0.034204  0.000000  0.034516      2.000000
 -0.002258  0.031596  0.032281      2.000000
  0.029688  0.031596  0.030047      2.000000
  0.061634  0.031596  0.027813      2.000000
  0.093580  0.031596  0.025579      2.000000
 -0.066150  0.031596  0.036750      2.000000
 -0.034204  0.031596  0.034516      2.000000
 -0.002258  0.063192  0.032281      2.000000
  0.029688  0.063192  0.030047      2.000000
  0.061634  0.063192  0.027813      2.000000
  0.093580  0.063192  0.025579      2.000000
 -0.066150  0.063192  0.036750      2.000000
 -0.034204  0.063192  0.034516      2.000000
 -0.002258  0.094788  0.032281      2.000000
  0.029688  0.094788  0.030047      2.000000
  0.061634  0.094788  0.027813      2.000000
  0.093580  0.094788  0.025579      2.000000
 -0.066150  0.094788  0.036750      2.000000
 -0.034204  0.094788  0.034516      2.000000
 -0.002258 -0.063192  0.032281      2.000000
  0.029688 -0.063192  0.030047      2.000000
  0.061634 -0.063192  0.027813      2.000000
  0.093580 -0.063192  0.025579      2.000000
 -0.066150 -0.063192  0.036750      2.000000
 -0.034204 -0.063192  0.034516      2.000000
 -0.002258 -0.031596  0.032281      2.000000
  0.029688 -0.031596  0.030047      2.000000
  0.061634 -0.031596  0.027813      2.000000
  0.093580 -0.031596  0.025579      2.000000
 -0.066150 -0.031596  0.036750      2.000000
 -0.034204 -0.031596  0.034516      2.000000
 
 TETIRR: Found    648 inequivalent tetrahedra from      648
 
 Subroutine IBZKPT_HF returns following result:
 ==============================================
 
 Found    108 k-points in 1st BZ
 the following    108 k-points will be used (e.g. in the exchange kernel)
 Following reciprocal coordinates:   # in IRBZ
  0.000000  0.000000  0.000000    0.00925926   1 t-inv F
  0.166667  0.000000  0.000000    0.00925926   2 t-inv F
  0.333333  0.000000  0.000000    0.00925926   3 t-inv F
  0.500000  0.000000  0.000000    0.00925926   4 t-inv F
  0.000000  0.166667  0.000000    0.00925926   5 t-inv F
  0.166667  0.166667  0.000000    0.00925926   6 t-inv F
  0.333333  0.166667  0.000000    0.00925926   7 t-inv F
  0.500000  0.166667  0.000000    0.00925926   8 t-inv F
  0.000000  0.333333  0.000000    0.00925926   9 t-inv F
  0.166667  0.333333  0.000000    0.00925926  10 t-inv F
  0.333333  0.333333  0.000000    0.00925926  11 t-inv F
  0.500000  0.333333  0.000000    0.00925926  12 t-inv F
  0.000000  0.500000  0.000000    0.00925926  13 t-inv F
  0.166667  0.500000  0.000000    0.00925926  14 t-inv F
  0.333333  0.500000  0.000000    0.00925926  15 t-inv F
  0.500000  0.500000  0.000000    0.00925926  16 t-inv F
  0.000000 -0.333333  0.000000    0.00925926  17 t-inv F
  0.166667 -0.333333  0.000000    0.00925926  18 t-inv F
  0.333333 -0.333333  0.000000    0.00925926  19 t-inv F
  0.500000 -0.333333  0.000000    0.00925926  20 t-inv F
  0.000000 -0.166667  0.000000    0.00925926  21 t-inv F
  0.166667 -0.166667  0.000000    0.00925926  22 t-inv F
  0.333333 -0.166667  0.000000    0.00925926  23 t-inv F
  0.500000 -0.166667  0.000000    0.00925926  24 t-inv F
 -0.000000  0.000000  0.333333    0.00925926  25 t-inv F
  0.166667  0.000000  0.333333    0.00925926  26 t-inv F
  0.333333  0.000000  0.333333    0.00925926  27 t-inv F
  0.500000  0.000000  0.333333    0.00925926  28 t-inv F
 -0.333333  0.000000  0.333333    0.00925926  29 t-inv F
 -0.166667  0.000000  0.333333    0.00925926  30 t-inv F
 -0.000000  0.166667  0.333333    0.00925926  31 t-inv F
  0.166667  0.166667  0.333333    0.00925926  32 t-inv F
  0.333333  0.166667  0.333333    0.00925926  33 t-inv F
  0.500000  0.166667  0.333333    0.00925926  34 t-inv F
 -0.333333  0.166667  0.333333    0.00925926  35 t-inv F
 -0.166667  0.166667  0.333333    0.00925926  36 t-inv F
 -0.000000  0.333333  0.333333    0.00925926  37 t-inv F
  0.166667  0.333333  0.333333    0.00925926  38 t-inv F
  0.333333  0.333333  0.333333    0.00925926  39 t-inv F
  0.500000  0.333333  0.333333    0.00925926  40 t-inv F
 -0.333333  0.333333  0.333333    0.00925926  41 t-inv F
 -0.166667  0.333333  0.333333    0.00925926  42 t-inv F
 -0.000000  0.500000  0.333333    0.00925926  43 t-inv F
  0.166667  0.500000  0.333333    0.00925926  44 t-inv F
  0.333333  0.500000  0.333333    0.00925926  45 t-inv F
  0.500000  0.500000  0.333333    0.00925926  46 t-inv F
 -0.333333  0.500000  0.333333    0.00925926  47 t-inv F
 -0.166667  0.500000  0.333333    0.00925926  48 t-inv F
 -0.000000 -0.333333  0.333333    0.00925926  49 t-inv F
  0.166667 -0.333333  0.333333    0.00925926  50 t-inv F
  0.333333 -0.333333  0.333333    0.00925926  51 t-inv F
  0.500000 -0.333333  0.333333    0.00925926  52 t-inv F
 -0.333333 -0.333333  0.333333    0.00925926  53 t-inv F
 -0.166667 -0.333333  0.333333    0.00925926  54 t-inv F
 -0.000000 -0.166667  0.333333    0.00925926  55 t-inv F
  0.166667 -0.166667  0.333333    0.00925926  56 t-inv F
  0.333333 -0.166667  0.333333    0.00925926  57 t-inv F
  0.500000 -0.166667  0.333333    0.00925926  58 t-inv F
 -0.333333 -0.166667  0.333333    0.00925926  59 t-inv F
 -0.166667 -0.166667  0.333333    0.00925926  60 t-inv F
 -0.166667  0.000000 -0.000000    0.00925926   2 t-inv F
 -0.333333  0.000000 -0.000000    0.00925926   3 t-inv F
 -0.166667  0.166667 -0.000000    0.00925926   6 t-inv F
 -0.333333  0.166667 -0.000000    0.00925926   7 t-inv F
 -0.166667  0.333333 -0.000000    0.00925926  10 t-inv F
 -0.333333  0.333333 -0.000000    0.00925926  11 t-inv F
 -0.166667  0.500000 -0.000000    0.00925926  14 t-inv F
 -0.333333  0.500000 -0.000000    0.00925926  15 t-inv F
 -0.166667 -0.333333 -0.000000    0.00925926  18 t-inv F
 -0.333333 -0.333333 -0.000000    0.00925926  19 t-inv F
 -0.166667 -0.166667 -0.000000    0.00925926  22 t-inv F
 -0.333333 -0.166667 -0.000000    0.00925926  23 t-inv F
  0.000000  0.000000 -0.333333    0.00925926  25 t-inv F
 -0.166667  0.000000 -0.333333    0.00925926  26 t-inv F
 -0.333333  0.000000 -0.333333    0.00925926  27 t-inv F
 -0.500000  0.000000 -0.333333    0.00925926  28 t-inv F
  0.333333  0.000000 -0.333333    0.00925926  29 t-inv F
  0.166667  0.000000 -0.333333    0.00925926  30 t-inv F
  0.000000  0.166667 -0.333333    0.00925926  31 t-inv F
 -0.166667  0.166667 -0.333333    0.00925926  32 t-inv F
 -0.333333  0.166667 -0.333333    0.00925926  33 t-inv F
 -0.500000  0.166667 -0.333333    0.00925926  34 t-inv F
  0.333333  0.166667 -0.333333    0.00925926  35 t-inv F
  0.166667  0.166667 -0.333333    0.00925926  36 t-inv F
  0.000000  0.333333 -0.333333    0.00925926  37 t-inv F
 -0.166667  0.333333 -0.333333    0.00925926  38 t-inv F
 -0.333333  0.333333 -0.333333    0.00925926  39 t-inv F
 -0.500000  0.333333 -0.333333    0.00925926  40 t-inv F
  0.333333  0.333333 -0.333333    0.00925926  41 t-inv F
  0.166667  0.333333 -0.333333    0.00925926  42 t-inv F
  0.000000  0.500000 -0.333333    0.00925926  43 t-inv F
 -0.166667  0.500000 -0.333333    0.00925926  44 t-inv F
 -0.333333  0.500000 -0.333333    0.00925926  45 t-inv F
 -0.500000  0.500000 -0.333333    0.00925926  46 t-inv F
  0.333333  0.500000 -0.333333    0.00925926  47 t-inv F
  0.166667  0.500000 -0.333333    0.00925926  48 t-inv F
  0.000000 -0.333333 -0.333333    0.00925926  49 t-inv F
 -0.166667 -0.333333 -0.333333    0.00925926  50 t-inv F
 -0.333333 -0.333333 -0.333333    0.00925926  51 t-inv F
 -0.500000 -0.333333 -0.333333    0.00925926  52 t-inv F
  0.333333 -0.333333 -0.333333    0.00925926  53 t-inv F
  0.166667 -0.333333 -0.333333    0.00925926  54 t-inv F
  0.000000 -0.166667 -0.333333    0.00925926  55 t-inv F
 -0.166667 -0.166667 -0.333333    0.00925926  56 t-inv F
 -0.333333 -0.166667 -0.333333    0.00925926  57 t-inv F
 -0.500000 -0.166667 -0.333333    0.00925926  58 t-inv F
  0.333333 -0.166667 -0.333333    0.00925926  59 t-inv F
  0.166667 -0.166667 -0.333333    0.00925926  60 t-inv F


--------------------------------------------------------------------------------------------------------




 Dimension of arrays:
   k-points           NKPTS =     60   k-points in BZ     NKDIM =     60   number of bands    NBANDS=    256
   number of dos      NEDOS =    301   number of ions     NIONS =     16
   non local maximal  LDIM  =      6   non local SUM 2l+1 LMDIM =     18
   total plane-waves  NPLWV = 207360
   max r-space proj   IRMAX =      1   max aug-charges    IRDMAX=  23074
   dimension x,y,z NGX =    48 NGY =   48 NGZ =   90
   dimension x,y,z NGXF=    96 NGYF=   96 NGZF=  180
   support grid    NGXF=    96 NGYF=   96 NGZF=  180
   ions per type =               8   4   4
   NGX,Y,Z   is equivalent  to a cutoff of  15.18, 15.13, 14.38 a.u.
   NGXF,Y,Z  is equivalent  to a cutoff of  30.37, 30.26, 28.77 a.u.

 SYSTEM =  CuFeS2                                  
 POSCAR =  Fe4 Cu4 S8                              

 Startparameter for this run:
   NWRITE =      2    write-flag & timer
   PREC   = accura    normal or accurate (medium, high low for compatibility)
   ISTART =      1    job   : 0-new  1-cont  2-samecut
   ICHARG =      1    charge: 1-file 2-atom 10-const
   ISPIN  =      1    spin polarized calculation?
   LNONCOLLINEAR =      T non collinear calculations
   LSORBIT =      T    spin-orbit coupling
   INIWAV =      1    electr: 0-lowe 1-rand  2-diag
   LASPH  =      T    aspherical Exc in radial PAW
   METAGGA=      F    non-selfconsistent MetaGGA calc.

 Electronic Relaxation 1
   ENCUT  =  700.0 eV  51.45 Ry    7.17 a.u.  11.34 11.38 22.44*2*pi/ulx,y,z
   ENINI  =  700.0     initial cutoff
   ENAUG  =  758.2 eV  augmentation charge cutoff
   NELM   =    200;   NELMIN=  2; NELMDL=  0     # of ELM steps 
   EDIFF  = 0.1E-07   stopping-criterion for ELM
   LREAL  =      F    real-space projection
   NLSPLINE    = F    spline interpolate recip. space projectors
   LCOMPAT=      F    compatible to vasp.4.4
   GGA_COMPAT  = T    GGA compatible to vasp.4.4-vasp.4.6
   LMAXPAW     = -100 max onsite density
   LMAXMIX     =    4 max onsite mixed and CHGCAR
   VOSKOWN=      0    Vosko Wilk Nusair interpolation
   ROPT   =    0.00000   0.00000   0.00000
 Ionic relaxation
   EDIFFG = -.1E-04   stopping-criterion for IOM
   NSW    =      0    number of steps for IOM
   NBLOCK =      1;   KBLOCK =      1    inner block; outer block 
   IBRION =     -1    ionic relax: 0-MD 1-quasi-New 2-CG
   NFREE  =      0    steps in history (QN), initial steepest desc. (CG)
   ISIF   =      2    stress and relaxation
   IWAVPR =     10    prediction:  0-non 1-charg 2-wave 3-comb
   ISYM   =      2    0-nonsym 1-usesym 2-fastsym
   LCORR  =      T    Harris-Foulkes like correction to forces

   POTIM  = 0.5000    time-step for ionic-motion
   TEIN   =    0.0    initial temperature
   TEBEG  =    0.0;   TEEND  =   0.0 temperature during run
   SMASS  =  -3.00    Nose mass-parameter (am)
   estimated Nose-frequenzy (Omega)   =  0.10E-29 period in steps =****** mass=  -0.631E-27a.u.
   SCALEE = 1.0000    scale energy and forces
   NPACO  =    256;   APACO  = 16.0  distance and # of slots for P.C.
   PSTRESS=    0.0 pullay stress

  Mass of Ions in am
   POMASS =  32.07 63.55 55.85
  Ionic Valenz
   ZVAL   =   6.00 17.00 14.00
  Atomic Wigner-Seitz radii
   RWIGS  =  -1.00 -1.00 -1.00
  virtual crystal weights 
   VCA    =   1.00  1.00  1.00
   NELECT =     172.0000    total number of electrons
   NUPDOWN=      -1.0000    fix difference up-down

 DOS related values:
   EMIN   =  10.00;   EMAX   =-10.00  energy-range for DOS
   EFERMI =   0.00
   ISMEAR =    -5;   SIGMA  =   0.03  broadening in eV -4-tet -1-fermi 0-gaus

 Electronic relaxation 2 (details)
   IALGO  =     38    algorithm
   LDIAG  =      T    sub-space diagonalisation (order eigenvalues)
   LSUBROT=      F    optimize rotation matrix (better conditioning)
   TURBO    =      0    0=normal 1=particle mesh
   IRESTART =      0    0=no restart 2=restart with 2 vectors
   NREBOOT  =      0    no. of reboots
   NMIN     =      0    reboot dimension
   EREF     =   0.00    reference energy to select bands
   IMIX   =      4    mixing-type and parameters
     AMIX     =   0.40;   BMIX     =  1.00
     AMIX_MAG =   1.60;   BMIX_MAG =  1.00
     AMIN     =   0.10
     WC   =   100.;   INIMIX=   1;  MIXPRE=   1;  MAXMIX= -45

 Intra band minimization:
   WEIMIN = 0.0000     energy-eigenvalue tresh-hold
   EBREAK =  0.98E-11  absolut break condition
   DEPER  =   0.30     relativ break condition  

   TIME   =   0.40     timestep for ELM

  volume/ion in A,a.u.               =      17.85       120.44
  Fermi-wavevector in a.u.,A,eV,Ry     =   1.382555  2.612650 26.006963  1.911458
  Thomas-Fermi vector in A             =   2.507235
 
 Write flags
   LWAVE        =      T    write WAVECAR
   LDOWNSAMPLE  =      F    k-point downsampling of WAVECAR
   LCHARG       =      T    write CHGCAR
   LVTOT        =      F    write LOCPOT, total local potential
   LVHAR        =      F    write LOCPOT, Hartree potential only
   LELF         =      F    write electronic localiz. function (ELF)
   LORBIT       =     11    0 simple, 1 ext, 2 COOP (PROOUT), +10 PAW based schemes


 Dipole corrections
   LMONO  =      F    monopole corrections only (constant potential shift)
   LDIPOL =      F    correct potential (dipole corrections)
   IDIPOL =      0    1-x, 2-y, 3-z, 4-all directions 
   EPSILON=  1.0000000 bulk dielectric constant

 LDA+U is selected, type is set to LDAUTYPE =  2
   angular momentum for each species LDAUL =     2    2    2
   U (eV)           for each species LDAUU =   0.0  0.1  4.7
   J (eV)           for each species LDAUJ =   0.0  0.0  0.0
 Exchange correlation treatment:
   GGA     =    PS    GGA type
   LEXCH   =    14    internal setting for exchange type
   VOSKOWN=      0    Vosko Wilk Nusair interpolation
   LHFCALC =     F    Hartree Fock is set to
   LHFONE  =     F    Hartree Fock one center treatment
   AEXX    =    0.0000 exact exchange contribution

 Linear response parameters
   LEPSILON=     F    determine dielectric tensor
   LRPA    =     F    only Hartree local field effects (RPA)
   LNABLA  =     F    use nabla operator in PAW spheres
   LVEL    =     F    velocity operator in full k-point grid
   LINTERFAST=   F  fast interpolation
   KINTER  =     0    interpolate to denser k-point grid
   CSHIFT  =0.1000    complex shift for real part using Kramers Kronig
   OMEGAMAX=  -1.0    maximum frequency
   DEG_THRESHOLD= 0.2000000E-02 threshold for treating states as degnerate
   RTIME   =   -0.100 relaxation time in fs
  (WPLASMAI=    0.000 imaginary part of plasma frequency in eV, 0.658/RTIME)
   DFIELD  = 0.0000000 0.0000000 0.0000000 field for delta impulse in time
 
 Orbital magnetization related:
   ORBITALMAG=     F  switch on orbital magnetization
   LCHIMAG   =     F  perturbation theory with respect to B field
   DQ        =  0.001000  dq finite difference perturbation B field
   LLRAUG    =     F  two centre corrections for induced B field

 PEAD related settings:
   LPEAD      =     T    switch on PEAD
   IPEAD      =     4    finite difference order for dpsi/dk
   LCALCPOL   =     T    calculate macroscopic polarization
   LCALCEPS   =     F    calculate dielectric tensor
   EFIELD_PEAD=    0.0000    0.0000    0.0000
   SKIP_EDOTP =     F
   LRPA       =     F
   SKIP_SCF   =     F


--------------------------------------------------------------------------------------------------------


 Static calculation
 charge density and potential will be updated during run
 non collinear spin polarized calculation
 Variant of blocked Davidson
 Davidson routine will perform the subspace rotation
 perform sub-space diagonalisation
    after iterative eigenvector-optimisation
 modified Broyden-mixing scheme, WC =      100.0
 initial mixing is a Kerker type mixing with AMIX =  0.4000 and BMIX =      1.0000
 Hartree-type preconditioning will be used
 using additional bands          170
 reciprocal scheme for non local part
 use partial core corrections
 calculate Harris-corrections to forces 
   (improved forces if not selfconsistent)
 use gradient corrections 
 use of overlap-Matrix (Vanderbilt PP)
 Fermi weights with tetrahedron method with Bloechl corrections


--------------------------------------------------------------------------------------------------------


  energy-cutoff  :      700.00
  volume of cell :      285.57
      direct lattice vectors                 reciprocal lattice vectors
     5.242777000  0.000000000  0.366667000     0.191676148  0.000000000 -0.013405353
     0.000000000  5.274931023  0.000000000     0.000000000  0.189575939  0.000000000
     0.725717000  0.000000000 10.376649000    -0.006773026  0.000000000  0.096843914

  length of vectors
     5.255583256  5.274931023 10.401995464     0.192144345  0.189575939  0.097080469


 
 old parameters found on file WAVECAR:
  energy-cutoff  :      700.00
  volume of cell :      285.56
      direct lattice vectors                 reciprocal lattice vectors
     5.242777000  0.000000000  0.366667000     0.191676148  0.000000000 -0.013405353
     0.000000000  5.274816090  0.000000000     0.000000000  0.189580069  0.000000000
     0.725717000  0.000000000 10.376649000    -0.006773026  0.000000000  0.096843914

  length of vectors

 
 k-points in units of 2pi/SCALE and weight: Automatic mesh                          
   0.00000000  0.00000000  0.00000000       0.009
   0.03194602  0.00000000 -0.00223423       0.019
   0.06389205  0.00000000 -0.00446845       0.019
   0.09583807  0.00000000 -0.00670268       0.009
   0.00000000  0.03159599  0.00000000       0.009
   0.03194602  0.03159599 -0.00223423       0.019
   0.06389205  0.03159599 -0.00446845       0.019
   0.09583807  0.03159599 -0.00670268       0.009
   0.00000000  0.06319198  0.00000000       0.009
   0.03194602  0.06319198 -0.00223423       0.019
   0.06389205  0.06319198 -0.00446845       0.019
   0.09583807  0.06319198 -0.00670268       0.009
   0.00000000  0.09478797  0.00000000       0.009
   0.03194602  0.09478797 -0.00223423       0.019
   0.06389205  0.09478797 -0.00446845       0.019
   0.09583807  0.09478797 -0.00670268       0.009
   0.00000000 -0.06319198  0.00000000       0.009
   0.03194602 -0.06319198 -0.00223423       0.019
   0.06389205 -0.06319198 -0.00446845       0.019
   0.09583807 -0.06319198 -0.00670268       0.009
   0.00000000 -0.03159599  0.00000000       0.009
   0.03194602 -0.03159599 -0.00223423       0.019
   0.06389205 -0.03159599 -0.00446845       0.019
   0.09583807 -0.03159599 -0.00670268       0.009
  -0.00225768  0.00000000  0.03228130       0.019
   0.02968835  0.00000000  0.03004708       0.019
   0.06163437  0.00000000  0.02781285       0.019
   0.09358040  0.00000000  0.02557863       0.019
  -0.06614972  0.00000000  0.03674976       0.019
  -0.03420370  0.00000000  0.03451553       0.019
  -0.00225768  0.03159599  0.03228130       0.019
   0.02968835  0.03159599  0.03004708       0.019
   0.06163437  0.03159599  0.02781285       0.019
   0.09358040  0.03159599  0.02557863       0.019
  -0.06614972  0.03159599  0.03674976       0.019
  -0.03420370  0.03159599  0.03451553       0.019
  -0.00225768  0.06319198  0.03228130       0.019
   0.02968835  0.06319198  0.03004708       0.019
   0.06163437  0.06319198  0.02781285       0.019
   0.09358040  0.06319198  0.02557863       0.019
  -0.06614972  0.06319198  0.03674976       0.019
  -0.03420370  0.06319198  0.03451553       0.019
  -0.00225768  0.09478797  0.03228130       0.019
   0.02968835  0.09478797  0.03004708       0.019
   0.06163437  0.09478797  0.02781285       0.019
   0.09358040  0.09478797  0.02557863       0.019
  -0.06614972  0.09478797  0.03674976       0.019
  -0.03420370  0.09478797  0.03451553       0.019
  -0.00225768 -0.06319198  0.03228130       0.019
   0.02968835 -0.06319198  0.03004708       0.019
   0.06163437 -0.06319198  0.02781285       0.019
   0.09358040 -0.06319198  0.02557863       0.019
  -0.06614972 -0.06319198  0.03674976       0.019
  -0.03420370 -0.06319198  0.03451553       0.019
  -0.00225768 -0.03159599  0.03228130       0.019
   0.02968835 -0.03159599  0.03004708       0.019
   0.06163437 -0.03159599  0.02781285       0.019
   0.09358040 -0.03159599  0.02557863       0.019
  -0.06614972 -0.03159599  0.03674976       0.019
  -0.03420370 -0.03159599  0.03451553       0.019
 
 k-points in reciprocal lattice and weights: Automatic mesh                          
   0.00000000  0.00000000  0.00000000       0.009
   0.16666667  0.00000000  0.00000000       0.019
   0.33333333  0.00000000  0.00000000       0.019
   0.50000000  0.00000000  0.00000000       0.009
   0.00000000  0.16666667  0.00000000       0.009
   0.16666667  0.16666667  0.00000000       0.019
   0.33333333  0.16666667  0.00000000       0.019
   0.50000000  0.16666667  0.00000000       0.009
   0.00000000  0.33333333  0.00000000       0.009
   0.16666667  0.33333333  0.00000000       0.019
   0.33333333  0.33333333  0.00000000       0.019
   0.50000000  0.33333333  0.00000000       0.009
   0.00000000  0.50000000  0.00000000       0.009
   0.16666667  0.50000000  0.00000000       0.019
   0.33333333  0.50000000  0.00000000       0.019
   0.50000000  0.50000000  0.00000000       0.009
   0.00000000 -0.33333333  0.00000000       0.009
   0.16666667 -0.33333333  0.00000000       0.019
   0.33333333 -0.33333333  0.00000000       0.019
   0.50000000 -0.33333333  0.00000000       0.009
   0.00000000 -0.16666667  0.00000000       0.009
   0.16666667 -0.16666667  0.00000000       0.019
   0.33333333 -0.16666667  0.00000000       0.019
   0.50000000 -0.16666667  0.00000000       0.009
  -0.00000000  0.00000000  0.33333333       0.019
   0.16666667  0.00000000  0.33333333       0.019
   0.33333333  0.00000000  0.33333333       0.019
   0.50000000  0.00000000  0.33333333       0.019
  -0.33333333  0.00000000  0.33333333       0.019
  -0.16666667  0.00000000  0.33333333       0.019
  -0.00000000  0.16666667  0.33333333       0.019
   0.16666667  0.16666667  0.33333333       0.019
   0.33333333  0.16666667  0.33333333       0.019
   0.50000000  0.16666667  0.33333333       0.019
  -0.33333333  0.16666667  0.33333333       0.019
  -0.16666667  0.16666667  0.33333333       0.019
  -0.00000000  0.33333333  0.33333333       0.019
   0.16666667  0.33333333  0.33333333       0.019
   0.33333333  0.33333333  0.33333333       0.019
   0.50000000  0.33333333  0.33333333       0.019
  -0.33333333  0.33333333  0.33333333       0.019
  -0.16666667  0.33333333  0.33333333       0.019
  -0.00000000  0.50000000  0.33333333       0.019
   0.16666667  0.50000000  0.33333333       0.019
   0.33333333  0.50000000  0.33333333       0.019
   0.50000000  0.50000000  0.33333333       0.019
  -0.33333333  0.50000000  0.33333333       0.019
  -0.16666667  0.50000000  0.33333333       0.019
  -0.00000000 -0.33333333  0.33333333       0.019
   0.16666667 -0.33333333  0.33333333       0.019
   0.33333333 -0.33333333  0.33333333       0.019
   0.50000000 -0.33333333  0.33333333       0.019
  -0.33333333 -0.33333333  0.33333333       0.019
  -0.16666667 -0.33333333  0.33333333       0.019
  -0.00000000 -0.16666667  0.33333333       0.019
   0.16666667 -0.16666667  0.33333333       0.019
   0.33333333 -0.16666667  0.33333333       0.019
   0.50000000 -0.16666667  0.33333333       0.019
  -0.33333333 -0.16666667  0.33333333       0.019
  -0.16666667 -0.16666667  0.33333333       0.019
 
 position of ions in fractional coordinates (direct lattice) 
   0.25345380  0.23182237  0.12646655
   0.74654620  0.73182237  0.12353345
   0.25000000  0.73788893  0.87500000
   0.75000000  0.24047551  0.87500000
   0.24654620  0.23182237  0.62353345
   0.75345380  0.73182237  0.62646655
   0.75000000  0.23788893  0.37500000
   0.25000000  0.74047551  0.37500000
   0.99257014  0.01447317  0.50006977
   0.50742986  0.01447317  0.24993023
   0.49257014  0.51447317  0.00006977
   0.00742986  0.51447317  0.74993023
   0.99579243  0.01452224  0.00133116
   0.50420757  0.01452224  0.74866884
   0.49579243  0.51452224  0.50133116
   0.00420757  0.51452224  0.24866884
 
 position of ions in cartesian coordinates  (Angst):
   1.42058069  1.22284701  1.40523217
   4.00362556  3.86031252  1.55559708
   1.94569663  3.89231320  9.17123463
   4.56708513  1.26849172  9.35456813
   1.74509556  1.22284701  6.56058808
   4.40482769  3.86031252  6.77689017
   4.20422663  1.25484768  4.16624362
   1.58283813  3.90595723  3.98291013
   5.56673302  0.07634496  5.55299116
   2.84172023  0.07634496  2.77949609
   2.58248602  2.71381047  0.18133316
   0.58319023  2.71381047  7.78448709
   5.22168370  0.07660384  0.37893723
   3.18676955  0.07660384  7.95355002
   2.96315370  2.71406935  5.38392823
   0.20252255  2.71406935  2.58189202
 
 Euler angles ALPHA=     0.0000000  BETA=     0.0000000

 transformation matrix from SAXIS to cartesian coordinates
 ---------------------------------------------------------
     1.0000000 m_x     0.0000000 m_y     0.0000000 m_z
     0.0000000 m_x     1.0000000 m_y     0.0000000 m_z
     0.0000000 m_x     0.0000000 m_y     1.0000000 m_z

 transformation matrix from cartesian coordinates to SAXIS
 ---------------------------------------------------------
     1.0000000 m_x     0.0000000 m_y     0.0000000 m_z
     0.0000000 m_x     1.0000000 m_y     0.0000000 m_z
     0.0000000 m_x     0.0000000 m_y     1.0000000 m_z




--------------------------------------------------------------------------------------------------------


 k-point  1 :   0.0000 0.0000 0.0000  plane waves:   24002
 k-point  2 :   0.1667 0.0000 0.0000  plane waves:   24034
 k-point  3 :   0.3333 0.0000 0.0000  plane waves:   24030
 k-point  4 :   0.5000 0.0000 0.0000  plane waves:   24064
 k-point  5 :   0.0000 0.1667 0.0000  plane waves:   24066
 k-point  6 :   0.1667 0.1667 0.0000  plane waves:   24024
 k-point  7 :   0.3333 0.1667 0.0000  plane waves:   24028
 k-point  8 :   0.5000 0.1667 0.0000  plane waves:   24032
 k-point  9 :   0.0000 0.3333 0.0000  plane waves:   24034
 k-point 10 :   0.1667 0.3333 0.0000  plane waves:   24026
 k-point 11 :   0.3333 0.3333 0.0000  plane waves:   23966
 k-point 12 :   0.5000 0.3333 0.0000  plane waves:   23968
 k-point 13 :   0.0000 0.5000 0.0000  plane waves:   24084
 k-point 14 :   0.1667 0.5000 0.0000  plane waves:   24028
 k-point 15 :   0.3333 0.5000 0.0000  plane waves:   23948
 k-point 16 :   0.5000 0.5000 0.0000  plane waves:   23960
 k-point 17 :   0.0000-0.3333 0.0000  plane waves:   24034
 k-point 18 :   0.1667-0.3333 0.0000  plane waves:   24026
 k-point 19 :   0.3333-0.3333 0.0000  plane waves:   23966
 k-point 20 :   0.5000-0.3333 0.0000  plane waves:   23968
 k-point 21 :   0.0000-0.1667 0.0000  plane waves:   24066
 k-point 22 :   0.1667-0.1667 0.0000  plane waves:   24024
 k-point 23 :   0.3333-0.1667 0.0000  plane waves:   24028
 k-point 24 :   0.5000-0.1667 0.0000  plane waves:   24032
 k-point 25 :  -0.0000 0.0000 0.3333  plane waves:   24036
 k-point 26 :   0.1667 0.0000 0.3333  plane waves:   24068
 k-point 27 :   0.3333 0.0000 0.3333  plane waves:   24032
 k-point 28 :   0.5000 0.0000 0.3333  plane waves:   24044
 k-point 29 :  -0.3333 0.0000 0.3333  plane waves:   24048
 k-point 30 :  -0.1667 0.0000 0.3333  plane waves:   24008
 k-point 31 :  -0.0000 0.1667 0.3333  plane waves:   24038
 k-point 32 :   0.1667 0.1667 0.3333  plane waves:   24020
 k-point 33 :   0.3333 0.1667 0.3333  plane waves:   24000
 k-point 34 :   0.5000 0.1667 0.3333  plane waves:   24036
 k-point 35 :  -0.3333 0.1667 0.3333  plane waves:   24020
 k-point 36 :  -0.1667 0.1667 0.3333  plane waves:   24026
 k-point 37 :  -0.0000 0.3333 0.3333  plane waves:   23986
 k-point 38 :   0.1667 0.3333 0.3333  plane waves:   24008
 k-point 39 :   0.3333 0.3333 0.3333  plane waves:   24024
 k-point 40 :   0.5000 0.3333 0.3333  plane waves:   23978
 k-point 41 :  -0.3333 0.3333 0.3333  plane waves:   23990
 k-point 42 :  -0.1667 0.3333 0.3333  plane waves:   24028
 k-point 43 :  -0.0000 0.5000 0.3333  plane waves:   24060
 k-point 44 :   0.1667 0.5000 0.3333  plane waves:   24008
 k-point 45 :   0.3333 0.5000 0.3333  plane waves:   23944
 k-point 46 :   0.5000 0.5000 0.3333  plane waves:   23936
 k-point 47 :  -0.3333 0.5000 0.3333  plane waves:   23988
 k-point 48 :  -0.1667 0.5000 0.3333  plane waves:   24040
 k-point 49 :  -0.0000-0.3333 0.3333  plane waves:   23986
 k-point 50 :   0.1667-0.3333 0.3333  plane waves:   24008
 k-point 51 :   0.3333-0.3333 0.3333  plane waves:   24024
 k-point 52 :   0.5000-0.3333 0.3333  plane waves:   23978
 k-point 53 :  -0.3333-0.3333 0.3333  plane waves:   23990
 k-point 54 :  -0.1667-0.3333 0.3333  plane waves:   24028
 k-point 55 :  -0.0000-0.1667 0.3333  plane waves:   24038
 k-point 56 :   0.1667-0.1667 0.3333  plane waves:   24020
 k-point 57 :   0.3333-0.1667 0.3333  plane waves:   24000
 k-point 58 :   0.5000-0.1667 0.3333  plane waves:   24036
 k-point 59 :  -0.3333-0.1667 0.3333  plane waves:   24020
 k-point 60 :  -0.1667-0.1667 0.3333  plane waves:   24026

 maximum and minimum number of plane-waves per node :     24084    23936

 maximum number of plane-waves:     24084
 maximum index in each direction: 
   IXMAX=   11   IYMAX=   11   IZMAX=   22
   IXMIN=  -11   IYMIN=  -11   IZMIN=  -22


 serial   3D FFT for wavefunctions
 parallel 3D FFT for charge:
    minimum data exchange during FFTs selected (reduces bandwidth)


 total amount of memory used by VASP MPI-rank0   410429. kBytes
=======================================================================

   base      :      30000. kBytes
   nonl-proj :     321650. kBytes
   fftplans  :       2735. kBytes
   grid      :      30965. kBytes
   one-center:        995. kBytes
   wavefun   :      24084. kBytes
 
     INWAV:  cpu time   15.5818: real time   15.7595
 Broyden mixing: mesh for mixing (old mesh)
   NGX = 23   NGY = 23   NGZ = 45
  (NGX  = 96   NGY  = 96   NGZ  =180)
  gives a total of  23805 points

 initial charge density was supplied:
 number of electron     171.9999972 magnetization       0.0000000      0.0000040      0.0000000
 keeping initial charge density in first step


--------------------------------------------------------------------------------------------------------


 Maximum index for augmentation-charges          893 (set IRDMAX)


--------------------------------------------------------------------------------------------------------


 First call to EWALD:  gamma=   0.269
 Maximum number of real-space cells 3x 3x 2
 Maximum number of reciprocal cells 2x 2x 4

    FEWALD:  cpu time    0.0020: real time    0.0020


--------------------------------------- Iteration      1(   1)  ---------------------------------------


    POTLOK:  cpu time    0.2589: real time    0.3030
    SETDIJ:  cpu time    0.5898: real time    0.5916
     EDDAV:  cpu time   78.2979: real time   78.8315
 BZINTS: Fermi energy:  5.094629;172.000000 electrons
         Band energy:***********;  BLOECHL correction:  0.000000
       DOS:  cpu time    0.0401: real time    0.0403
    CHARGE:  cpu time    1.4593: real time    1.4727
    MIXING:  cpu time    0.0024: real time    0.0025
    --------------------------------------------
      LOOP:  cpu time   80.6484: real time   81.2416

 eigenvalue-minimisations  : 30720
 total energy-change (2. order) :-0.8174141E+02  (-0.1936454E+00)
 number of electron     171.9999972 magnetization       0.0000000      0.0006760      0.0000000
 augmentation part       70.5690147 magnetization       0.0000000     -0.0007968      0.0000000

 Broyden mixing:
  rms(total) = 0.78935E-01    rms(broyden)= 0.78934E-01
  rms(prec ) = 0.78995E-01
  weight for this iteration     100.00

 Free energy of the ion-electron system (eV)
  ---------------------------------------------------
  alpha Z        PSCENC =       593.37304339
  Ewald energy   TEWEN  =    -15673.69805992
  -Hartree energ DENC   =    -10704.58617355
  -exchange      EXHF   =         0.00000000
  -V(xc)+E(xc)   XCENC  =       821.61399110
  PAW double counting   =     28023.38159760   -28946.01035975
  entropy T*S    EENTRO =         0.00000000
  eigenvalues    EBANDS =     -2700.83172585
  atomic energy  EATOM  =     28505.01627691
  Solvation  Ediel_sol  =         0.00000000
  ---------------------------------------------------
  free energy    TOTEN  =       -81.74141008 eV

  energy without entropy =      -81.74141008  energy(sigma->0) =      -81.74141008


--------------------------------------------------------------------------------------------------------




--------------------------------------- Iteration      1(   2)  ---------------------------------------


    POTLOK:  cpu time    0.1286: real time    0.1300
    SETDIJ:  cpu time    0.5908: real time    0.5927
     EDDAV:  cpu time   80.8038: real time   81.2379
 BZINTS: Fermi energy:  5.077402;172.000000 electrons
         Band energy:***********;  BLOECHL correction:  0.000000
       DOS:  cpu time    0.0337: real time    0.0339
    CHARGE:  cpu time    1.4609: real time    1.4739
    MIXING:  cpu time    0.0019: real time    0.0026
    --------------------------------------------
      LOOP:  cpu time   83.0197: real time   83.4710

 eigenvalue-minimisations  : 30720
 total energy-change (2. order) :-0.8954501E-02  (-0.6534515E-02)
 number of electron     171.9999972 magnetization       0.0000000      0.0008549      0.0000000
 augmentation part       70.5702840 magnetization       0.0000000     -0.0010036      0.0000000

 Broyden mixing:
  rms(total) = 0.47213E-01    rms(broyden)= 0.47213E-01
  rms(prec ) = 0.47503E-01
  weight for this iteration     100.00

 eigenvalues of (default mixing * dielectric matrix)
  average eigenvalue GAMMA=   0.6355
  0.6355

 Free energy of the ion-electron system (eV)
  ---------------------------------------------------
  alpha Z        PSCENC =       593.37304339
  Ewald energy   TEWEN  =    -15673.69805992
  -Hartree energ DENC   =    -10704.29226120
  -exchange      EXHF   =         0.00000000
  -V(xc)+E(xc)   XCENC  =       821.60006847
  PAW double counting   =     28024.28002980   -28946.88271874
  entropy T*S    EENTRO =         0.00000000
  eigenvalues    EBANDS =     -2701.14674329
  atomic energy  EATOM  =     28505.01627691
  Solvation  Ediel_sol  =         0.00000000
  ---------------------------------------------------
  free energy    TOTEN  =       -81.75036458 eV

  energy without entropy =      -81.75036458  energy(sigma->0) =      -81.75036458


--------------------------------------------------------------------------------------------------------




--------------------------------------- Iteration      1(   3)  ---------------------------------------


    POTLOK:  cpu time    0.1292: real time    0.1301
    SETDIJ:  cpu time    0.5908: real time    0.5927
     EDDAV:  cpu time  339.8402: real time  341.7496
 BZINTS: Fermi energy:  5.123107;172.000000 electrons
         Band energy:***********;  BLOECHL correction:  0.000000
       DOS:  cpu time    0.0423: real time    0.0430
    CHARGE:  cpu time    1.4562: real time    1.4694
    MIXING:  cpu time    0.0073: real time    0.2444
    --------------------------------------------
      LOOP:  cpu time  342.0660: real time  344.2293

 eigenvalue-minimisations  : 58112
 total energy-change (2. order) :-0.1204009E-02  (-0.1745315E-02)
 number of electron     171.9999972 magnetization       0.0000000      0.0007086      0.0000000
 augmentation part       70.5709684 magnetization       0.0000000     -0.0002494      0.0000000

 Broyden mixing:
  rms(total) = 0.14135E-01    rms(broyden)= 0.14134E-01
  rms(prec ) = 0.15140E-01
  weight for this iteration     100.00

 eigenvalues of (default mixing * dielectric matrix)
  average eigenvalue GAMMA=   0.5896
  0.6662  0.5130

 Free energy of the ion-electron system (eV)
  ---------------------------------------------------
  alpha Z        PSCENC =       593.37304339
  Ewald energy   TEWEN  =    -15673.69805992
  -Hartree energ DENC   =    -10704.48032812
  -exchange      EXHF   =         0.00000000
  -V(xc)+E(xc)   XCENC  =       821.60882547
  PAW double counting   =     28025.05058201   -28947.67551084
  entropy T*S    EENTRO =         0.00000000
  eigenvalues    EBANDS =     -2700.94639749
  atomic energy  EATOM  =     28505.01627691
  Solvation  Ediel_sol  =         0.00000000
  ---------------------------------------------------
  free energy    TOTEN  =       -81.75156859 eV

  energy without entropy =      -81.75156859  energy(sigma->0) =      -81.75156859


--------------------------------------------------------------------------------------------------------




--------------------------------------- Iteration      1(   4)  ---------------------------------------


    POTLOK:  cpu time    0.1336: real time    0.1346
    SETDIJ:  cpu time    0.5910: real time    0.5926
     EDDAV:  cpu time   96.2551: real time   96.7601
 BZINTS: Fermi energy:  5.061364;172.000000 electrons
         Band energy:***********;  BLOECHL correction:  0.000000
       DOS:  cpu time    0.0410: real time    0.0411
    CHARGE:  cpu time    1.4604: real time    1.4727
    MIXING:  cpu time    0.0017: real time    0.0017
    --------------------------------------------
      LOOP:  cpu time   98.4827: real time   99.0029

 eigenvalue-minimisations  : 32256
 total energy-change (2. order) :-0.8639069E-04  (-0.2933874E-02)
 number of electron     171.9999972 magnetization       0.0000000      0.0001656      0.0000000
 augmentation part       70.5700719 magnetization       0.0000000     -0.0007028      0.0000000

 Broyden mixing:
  rms(total) = 0.14286E-01    rms(broyden)= 0.14286E-01
  rms(prec ) = 0.14825E-01
  weight for this iteration     100.00

 eigenvalues of (default mixing * dielectric matrix)
  average eigenvalue GAMMA=   0.7550
  1.3580  0.6264  0.2806

 Free energy of the ion-electron system (eV)
  ---------------------------------------------------
  alpha Z        PSCENC =       593.37304339
  Ewald energy   TEWEN  =    -15673.69805992
  -Hartree energ DENC   =    -10704.32143890
  -exchange      EXHF   =         0.00000000
  -V(xc)+E(xc)   XCENC  =       821.59849684
  PAW double counting   =     28025.53562946   -28948.16534542
  entropy T*S    EENTRO =         0.00000000
  eigenvalues    EBANDS =     -2701.09025733
  atomic energy  EATOM  =     28505.01627691
  Solvation  Ediel_sol  =         0.00000000
  ---------------------------------------------------
  free energy    TOTEN  =       -81.75165498 eV

  energy without entropy =      -81.75165498  energy(sigma->0) =      -81.75165498


--------------------------------------------------------------------------------------------------------




--------------------------------------- Iteration      1(   5)  ---------------------------------------


    POTLOK:  cpu time    0.1255: real time    0.1298
    SETDIJ:  cpu time    0.5914: real time    0.5931
     EDDAV:  cpu time  342.3046: real time  343.9455
 BZINTS: Fermi energy:  5.030484;172.000000 electrons
         Band energy:***********;  BLOECHL correction:  0.000000
       DOS:  cpu time    0.0411: real time    0.0412
 


 total charge     
 
# of ion       s       p       d       tot
------------------------------------------
    1        1.316   2.403   0.000   3.719
    2        1.316   2.403   0.000   3.719
    3        1.318   2.395   0.000   3.713
    4        1.313   2.410   0.000   3.723
    5        1.316   2.403   0.000   3.719
    6        1.316   2.403   0.000   3.719
    7        1.318   2.395   0.000   3.713
    8        1.313   2.410   0.000   3.723
    9        0.257   6.200   8.917  15.375
   10        0.257   6.200   8.917  15.375
   11        0.257   6.200   8.917  15.375
   12        0.257   6.200   8.917  15.375
   13        0.345   6.345   5.828  12.518
   14        0.345   6.345   5.828  12.518
   15        0.345   6.345   5.828  12.518
   16        0.345   6.345   5.828  12.518
--------------------------------------------------
tot         12.937  69.399  58.982 141.317
 


 magnetization (x)
 
# of ion       s       p       d       tot
------------------------------------------
    1       -0.000  -0.000   0.000  -0.000
    2        0.000   0.000   0.000   0.000
    3       -0.000  -0.000   0.000  -0.000
    4       -0.000  -0.000   0.000  -0.000
    5        0.000   0.000   0.000   0.000
    6       -0.000  -0.000   0.000  -0.000
    7       -0.000  -0.000   0.000  -0.000
    8       -0.000  -0.000   0.000  -0.000
    9       -0.000  -0.000   0.000   0.000
   10        0.000   0.000  -0.000  -0.000
   11       -0.000  -0.000   0.000   0.000
   12        0.000   0.000  -0.000  -0.000
   13        0.000   0.000   0.001   0.001
   14       -0.000  -0.000  -0.001  -0.001
   15        0.000   0.000   0.001   0.001
   16       -0.000  -0.000  -0.001  -0.001
--------------------------------------------------
tot         -0.000  -0.000  -0.000  -0.001
 


 magnetization (y)
 
# of ion       s       p       d       tot
------------------------------------------
    1       -0.000  -0.000   0.000  -0.000
    2       -0.000  -0.000   0.000  -0.000
    3       -0.000   0.000   0.000  -0.000
    4        0.000   0.000   0.000   0.000
    5       -0.000  -0.000   0.000  -0.000
    6       -0.000  -0.000   0.000  -0.000
    7       -0.000   0.000   0.000  -0.000
    8        0.000   0.000   0.000   0.000
    9       -0.000   0.000  -0.000  -0.000
   10       -0.000   0.000   0.000   0.000
   11       -0.000   0.000  -0.000  -0.000
   12       -0.000   0.000   0.000   0.000
   13        0.000   0.000  -0.001  -0.000
   14        0.000   0.000  -0.001  -0.001
   15        0.000   0.000  -0.001  -0.000
   16        0.000   0.000  -0.001  -0.001
--------------------------------------------------
tot         -0.000  -0.000  -0.003  -0.003
 


 magnetization (z)
 
# of ion       s       p       d       tot
------------------------------------------
    1       -0.000  -0.036   0.000  -0.037
    2        0.000   0.036   0.000   0.037
    3        0.000   0.000   0.000   0.000
    4       -0.000  -0.000   0.000  -0.000
    5        0.000   0.036   0.000   0.037
    6       -0.000  -0.036   0.000  -0.037
    7        0.000   0.000   0.000   0.000
    8       -0.000  -0.000   0.000  -0.000
    9        0.000   0.001  -0.006  -0.005
   10       -0.000  -0.001   0.006   0.005
   11        0.000   0.001  -0.006  -0.005
   12       -0.000  -0.001   0.006   0.005
   13        0.021   0.054   3.654   3.729
   14       -0.021  -0.054  -3.654  -3.729
   15        0.021   0.054   3.654   3.729
   16       -0.021  -0.054  -3.654  -3.729
--------------------------------------------------
tot         -0.000  -0.000   0.000   0.000
 
    CHARGE:  cpu time    1.6273: real time    1.7338
    MIXING:  cpu time    0.0018: real time    0.0018
    --------------------------------------------
      LOOP:  cpu time  344.6916: real time  346.4452

 eigenvalue-minimisations  : 57600
 total energy-change (2. order) :-0.3312773E-03  (-0.2495920E-02)
 number of electron     171.9999972 magnetization       0.0000000     -0.0001582      0.0000000
 augmentation part       70.5707750 magnetization       0.0000000     -0.0013169      0.0000000

 Broyden mixing:
  rms(total) = 0.80735E-02    rms(broyden)= 0.80733E-02
  rms(prec ) = 0.84007E-02
  weight for this iteration     100.00

 eigenvalues of (default mixing * dielectric matrix)
  average eigenvalue GAMMA=   0.7163
  1.5806  0.6305  0.3724  0.2817

 Free energy of the ion-electron system (eV)
  ---------------------------------------------------
  alpha Z        PSCENC =       593.37304339
  Ewald energy   TEWEN  =    -15673.69805992
  -Hartree energ DENC   =    -10704.34411226
  -exchange      EXHF   =         0.00000000
  -V(xc)+E(xc)   XCENC  =       821.59619240
  PAW double counting   =     28026.70971353   -28949.34843104
  entropy T*S    EENTRO =         0.00000000
  eigenvalues    EBANDS =     -2701.05660926
  atomic energy  EATOM  =     28505.01627691
  Solvation  Ediel_sol  =         0.00000000
  ---------------------------------------------------
  free energy    TOTEN  =       -81.75198626 eV

  energy without entropy =      -81.75198626  energy(sigma->0) =      -81.75198626


--------------------------------------------------------------------------------------------------------




--------------------------------------- Iteration      1(   6)  ---------------------------------------


    POTLOK:  cpu time    0.1294: real time    0.1302
    SETDIJ:  cpu time    0.5912: real time    0.5931
     EDDAV:  cpu time   96.2146: real time   96.7132
 BZINTS: Fermi energy:  5.030990;172.000000 electrons
         Band energy:***********;  BLOECHL correction:  0.000000
       DOS:  cpu time    0.0412: real time    0.0414
    CHARGE:  cpu time    1.4629: real time    1.4770
    MIXING:  cpu time    0.0019: real time    0.0019
    --------------------------------------------
      LOOP:  cpu time   98.4412: real time   98.9568

 eigenvalue-minimisations  : 32256
 total energy-change (2. order) : 0.1426054E-03  (-0.1766721E-02)
 number of electron     171.9999972 magnetization       0.0000000     -0.0010675      0.0000000
 augmentation part       70.5706413 magnetization       0.0000000     -0.0000652      0.0000000

 Broyden mixing:
  rms(total) = 0.55717E-02    rms(broyden)= 0.55716E-02
  rms(prec ) = 0.55769E-02
  weight for this iteration     100.00

 eigenvalues of (default mixing * dielectric matrix)
  average eigenvalue GAMMA=   0.7538
  1.8387  0.7828  0.6197  0.3090  0.2187

 Free energy of the ion-electron system (eV)
  ---------------------------------------------------
  alpha Z        PSCENC =       593.37304339
  Ewald energy   TEWEN  =    -15673.69805992
  -Hartree energ DENC   =    -10704.40384038
  -exchange      EXHF   =         0.00000000
  -V(xc)+E(xc)   XCENC  =       821.59916062
  PAW double counting   =     28027.07927424   -28949.72193438
  entropy T*S    EENTRO =         0.00000000
  eigenvalues    EBANDS =     -2700.99576414
  atomic energy  EATOM  =     28505.01627691
  Solvation  Ediel_sol  =         0.00000000
  ---------------------------------------------------
  free energy    TOTEN  =       -81.75184365 eV

  energy without entropy =      -81.75184365  energy(sigma->0) =      -81.75184365


--------------------------------------------------------------------------------------------------------




--------------------------------------- Iteration      1(   7)  ---------------------------------------


    POTLOK:  cpu time    0.1283: real time    0.1293
    SETDIJ:  cpu time    0.5908: real time    0.5924
     EDDAV:  cpu time  222.2013: real time  223.2804
 BZINTS: Fermi energy:  5.028805;172.000000 electrons
         Band energy:***********;  BLOECHL correction:  0.000000
       DOS:  cpu time    0.0412: real time    0.0414
    CHARGE:  cpu time    1.4564: real time    1.4701
    MIXING:  cpu time    0.0021: real time    0.0021
    --------------------------------------------
      LOOP:  cpu time  224.4201: real time  225.5158

 eigenvalue-minimisations  : 45056
 total energy-change (2. order) :-0.6619831E-04  (-0.8968832E-03)
 number of electron     171.9999972 magnetization       0.0000000     -0.0015359      0.0000000
 augmentation part       70.5702073 magnetization       0.0000000     -0.0017240      0.0000000

 Broyden mixing:
  rms(total) = 0.34863E-02    rms(broyden)= 0.34862E-02
  rms(prec ) = 0.35081E-02
  weight for this iteration     100.00

 eigenvalues of (default mixing * dielectric matrix)
  average eigenvalue GAMMA=   0.7110
  1.9259  0.9115  0.6225  0.3169  0.2805  0.2084

 Free energy of the ion-electron system (eV)
  ---------------------------------------------------
  alpha Z        PSCENC =       593.37304339
  Ewald energy   TEWEN  =    -15673.69805992
  -Hartree energ DENC   =    -10704.42361372
  -exchange      EXHF   =         0.00000000
  -V(xc)+E(xc)   XCENC  =       821.59968534
  PAW double counting   =     28027.32535053   -28949.96948241
  entropy T*S    EENTRO =         0.00000000
  eigenvalues    EBANDS =     -2700.97510998
  atomic energy  EATOM  =     28505.01627691
  Solvation  Ediel_sol  =         0.00000000
  ---------------------------------------------------
  free energy    TOTEN  =       -81.75190985 eV

  energy without entropy =      -81.75190985  energy(sigma->0) =      -81.75190985


--------------------------------------------------------------------------------------------------------




--------------------------------------- Iteration      1(   8)  ---------------------------------------


    POTLOK:  cpu time    0.1286: real time    0.1295
    SETDIJ:  cpu time    0.5877: real time    0.5897
     EDDAV:  cpu time  120.0177: real time  120.6250
 BZINTS: Fermi energy:  5.028587;172.000000 electrons
         Band energy:***********;  BLOECHL correction:  0.000000
       DOS:  cpu time    0.0411: real time    0.0412
    CHARGE:  cpu time    1.4604: real time    1.4719
    MIXING:  cpu time    0.0022: real time    0.0022
    --------------------------------------------
      LOOP:  cpu time  122.2378: real time  122.8594

 eigenvalue-minimisations  : 34816
 total energy-change (2. order) :-0.7773424E-04  (-0.6185403E-03)
 number of electron     171.9999972 magnetization       0.0000000     -0.0020716      0.0000000
 augmentation part       70.5703286 magnetization       0.0000000     -0.0013187      0.0000000

 Broyden mixing:
  rms(total) = 0.29537E-02    rms(broyden)= 0.29536E-02
  rms(prec ) = 0.29565E-02
  weight for this iteration     100.00

 eigenvalues of (default mixing * dielectric matrix)
  average eigenvalue GAMMA=   0.7024
  2.0368  1.0705  0.6217  0.4976  0.3098  0.2235  0.1568

 Free energy of the ion-electron system (eV)
  ---------------------------------------------------
  alpha Z        PSCENC =       593.37304339
  Ewald energy   TEWEN  =    -15673.69805992
  -Hartree energ DENC   =    -10704.41208605
  -exchange      EXHF   =         0.00000000
  -V(xc)+E(xc)   XCENC  =       821.59905581
  PAW double counting   =     28027.33385117   -28949.97642416
  entropy T*S    EENTRO =         0.00000000
  eigenvalues    EBANDS =     -2700.98764474
  atomic energy  EATOM  =     28505.01627691
  Solvation  Ediel_sol  =         0.00000000
  ---------------------------------------------------
  free energy    TOTEN  =       -81.75198759 eV

  energy without entropy =      -81.75198759  energy(sigma->0) =      -81.75198759


--------------------------------------------------------------------------------------------------------




--------------------------------------- Iteration      1(   9)  ---------------------------------------


    POTLOK:  cpu time    0.1294: real time    0.1303
    SETDIJ:  cpu time    0.5894: real time    0.5912
     EDDAV:  cpu time  199.1210: real time  200.0901
 BZINTS: Fermi energy:  5.028452;172.000000 electrons
         Band energy:***********;  BLOECHL correction:  0.000000
       DOS:  cpu time    0.0412: real time    0.0414
    CHARGE:  cpu time    1.4577: real time    1.4714
    MIXING:  cpu time    0.0025: real time    0.0480
    --------------------------------------------
      LOOP:  cpu time  201.3412: real time  202.3724

 eigenvalue-minimisations  : 43008
 total energy-change (2. order) : 0.4309908E-04  (-0.2258950E-03)
 number of electron     171.9999972 magnetization       0.0000000     -0.0026712      0.0000000
 augmentation part       70.5704969 magnetization       0.0000000     -0.0013893      0.0000000

 Broyden mixing:
  rms(total) = 0.14881E-02    rms(broyden)= 0.14880E-02
  rms(prec ) = 0.15013E-02
  weight for this iteration     100.00

 eigenvalues of (default mixing * dielectric matrix)
  average eigenvalue GAMMA=   0.6878
  2.1447  1.1933  0.6146  0.6146  0.2793  0.2793  0.2264  0.1505

 Free energy of the ion-electron system (eV)
  ---------------------------------------------------
  alpha Z        PSCENC =       593.37304339
  Ewald energy   TEWEN  =    -15673.69805992
  -Hartree energ DENC   =    -10704.40242207
  -exchange      EXHF   =         0.00000000
  -V(xc)+E(xc)   XCENC  =       821.59864701
  PAW double counting   =     28027.31055552   -28949.95168330
  entropy T*S    EENTRO =         0.00000000
  eigenvalues    EBANDS =     -2700.99830203
  atomic energy  EATOM  =     28505.01627691
  Solvation  Ediel_sol  =         0.00000000
  ---------------------------------------------------
  free energy    TOTEN  =       -81.75194449 eV

  energy without entropy =      -81.75194449  energy(sigma->0) =      -81.75194449


--------------------------------------------------------------------------------------------------------




--------------------------------------- Iteration      1(  10)  ---------------------------------------


    POTLOK:  cpu time    0.1305: real time    0.1313
    SETDIJ:  cpu time    0.5887: real time    0.5905
     EDDAV:  cpu time  115.1544: real time  115.7475
 BZINTS: Fermi energy:  5.028283;172.000000 electrons
         Band energy:***********;  BLOECHL correction:  0.000000
       DOS:  cpu time    0.0412: real time    0.0414
 


 total charge     
 
# of ion       s       p       d       tot
------------------------------------------
    1        1.316   2.402   0.000   3.719
    2        1.316   2.402   0.000   3.719
    3        1.318   2.395   0.000   3.713
    4        1.313   2.410   0.000   3.723
    5        1.316   2.402   0.000   3.719
    6        1.316   2.402   0.000   3.719
    7        1.318   2.395   0.000   3.713
    8        1.313   2.410   0.000   3.723
    9        0.257   6.200   8.917  15.374
   10        0.257   6.200   8.916  15.374
[...]
     0.0000000     0.0000000     0.0000000     0.0000000     0.0000000     0.0000000     0.0000000

 Ion:    5  E_soc:     -0.0017506
 l=   1
     0.0000000    -0.0002513    -0.0003659
    -0.0002513     0.0000000    -0.0002581
    -0.0003659    -0.0002581     0.0000000
 l=   2
     0.0000000     0.0000000     0.0000000     0.0000000     0.0000000
     0.0000000     0.0000000     0.0000000     0.0000000     0.0000000
     0.0000000     0.0000000     0.0000000     0.0000000     0.0000000
     0.0000000     0.0000000     0.0000000     0.0000000     0.0000000
     0.0000000     0.0000000     0.0000000     0.0000000     0.0000000
 l=   3
     0.0000000     0.0000000     0.0000000     0.0000000     0.0000000     0.0000000     0.0000000
     0.0000000     0.0000000     0.0000000     0.0000000     0.0000000     0.0000000     0.0000000
     0.0000000     0.0000000     0.0000000     0.0000000     0.0000000     0.0000000     0.0000000
     0.0000000     0.0000000     0.0000000     0.0000000     0.0000000     0.0000000     0.0000000
     0.0000000     0.0000000     0.0000000     0.0000000     0.0000000     0.0000000     0.0000000
     0.0000000     0.0000000     0.0000000     0.0000000     0.0000000     0.0000000     0.0000000
     0.0000000     0.0000000     0.0000000     0.0000000     0.0000000     0.0000000     0.0000000

 Ion:    6  E_soc:     -0.0017506
 l=   1
     0.0000000    -0.0002513    -0.0003659
    -0.0002513     0.0000000    -0.0002581
    -0.0003659    -0.0002581     0.0000000
 l=   2
     0.0000000     0.0000000     0.0000000     0.0000000     0.0000000
     0.0000000     0.0000000     0.0000000     0.0000000     0.0000000
     0.0000000     0.0000000     0.0000000     0.0000000     0.0000000
     0.0000000     0.0000000     0.0000000     0.0000000     0.0000000
     0.0000000     0.0000000     0.0000000     0.0000000     0.0000000
 l=   3
     0.0000000     0.0000000     0.0000000     0.0000000     0.0000000     0.0000000     0.0000000
     0.0000000     0.0000000     0.0000000     0.0000000     0.0000000     0.0000000     0.0000000
     0.0000000     0.0000000     0.0000000     0.0000000     0.0000000     0.0000000     0.0000000
     0.0000000     0.0000000     0.0000000     0.0000000     0.0000000     0.0000000     0.0000000
     0.0000000     0.0000000     0.0000000     0.0000000     0.0000000     0.0000000     0.0000000
     0.0000000     0.0000000     0.0000000     0.0000000     0.0000000     0.0000000     0.0000000
     0.0000000     0.0000000     0.0000000     0.0000000     0.0000000     0.0000000     0.0000000

 Ion:    7  E_soc:     -0.0018072
 l=   1
     0.0000000    -0.0002559    -0.0003980
    -0.0002559     0.0000000    -0.0002497
    -0.0003980    -0.0002497     0.0000000
 l=   2
     0.0000000     0.0000000     0.0000000     0.0000000     0.0000000
     0.0000000     0.0000000     0.0000000     0.0000000     0.0000000
     0.0000000     0.0000000     0.0000000     0.0000000     0.0000000
     0.0000000     0.0000000     0.0000000     0.0000000     0.0000000
     0.0000000     0.0000000     0.0000000     0.0000000     0.0000000
 l=   3
     0.0000000     0.0000000     0.0000000     0.0000000     0.0000000     0.0000000     0.0000000
     0.0000000     0.0000000     0.0000000     0.0000000     0.0000000     0.0000000     0.0000000
     0.0000000     0.0000000     0.0000000     0.0000000     0.0000000     0.0000000     0.0000000
     0.0000000     0.0000000     0.0000000     0.0000000     0.0000000     0.0000000     0.0000000
     0.0000000     0.0000000     0.0000000     0.0000000     0.0000000     0.0000000     0.0000000
     0.0000000     0.0000000     0.0000000     0.0000000     0.0000000     0.0000000     0.0000000
     0.0000000     0.0000000     0.0000000     0.0000000     0.0000000     0.0000000     0.0000000

 Ion:    8  E_soc:     -0.0016670
 l=   1
     0.0000000    -0.0002556    -0.0003274
    -0.0002556     0.0000000    -0.0002504
    -0.0003274    -0.0002504     0.0000000
 l=   2
     0.0000000     0.0000000     0.0000000     0.0000000     0.0000000
     0.0000000     0.0000000     0.0000000     0.0000000     0.0000000
     0.0000000     0.0000000     0.0000000     0.0000000     0.0000000
     0.0000000     0.0000000     0.0000000     0.0000000     0.0000000
     0.0000000     0.0000000     0.0000000     0.0000000     0.0000000
 l=   3
     0.0000000     0.0000000     0.0000000     0.0000000     0.0000000     0.0000000     0.0000000
     0.0000000     0.0000000     0.0000000     0.0000000     0.0000000     0.0000000     0.0000000
     0.0000000     0.0000000     0.0000000     0.0000000     0.0000000     0.0000000     0.0000000
     0.0000000     0.0000000     0.0000000     0.0000000     0.0000000     0.0000000     0.0000000
     0.0000000     0.0000000     0.0000000     0.0000000     0.0000000     0.0000000     0.0000000
     0.0000000     0.0000000     0.0000000     0.0000000     0.0000000     0.0000000     0.0000000
     0.0000000     0.0000000     0.0000000     0.0000000     0.0000000     0.0000000     0.0000000

 Ion:    9  E_soc:     -0.0618993
 l=   1
     0.0000000    -0.0085650    -0.0085571
    -0.0085650     0.0000000    -0.0085648
    -0.0085571    -0.0085648     0.0000000
 l=   2
     0.0000000    -0.0004013     0.0000000    -0.0003949    -0.0013676
    -0.0004013     0.0000000    -0.0010743    -0.0003007    -0.0003426
     0.0000000    -0.0010743     0.0000000    -0.0010471     0.0000000
    -0.0003949    -0.0003007    -0.0010471     0.0000000    -0.0003342
    -0.0013676    -0.0003426     0.0000000    -0.0003342     0.0000000
 l=   3
     0.0000000     0.0000000     0.0000000     0.0000000     0.0000000     0.0000000     0.0000000
     0.0000000     0.0000000     0.0000000     0.0000000     0.0000000     0.0000000     0.0000000
     0.0000000     0.0000000     0.0000000     0.0000000     0.0000000     0.0000000     0.0000000
     0.0000000     0.0000000     0.0000000     0.0000000     0.0000000     0.0000000     0.0000000
     0.0000000     0.0000000     0.0000000     0.0000000     0.0000000     0.0000000     0.0000000
     0.0000000     0.0000000     0.0000000     0.0000000     0.0000000     0.0000000     0.0000000
     0.0000000     0.0000000     0.0000000     0.0000000     0.0000000     0.0000000     0.0000000

 Ion:   10  E_soc:     -0.0618993
 l=   1
     0.0000000    -0.0085650    -0.0085571
    -0.0085650     0.0000000    -0.0085648
    -0.0085571    -0.0085648     0.0000000
 l=   2
     0.0000000    -0.0004013     0.0000000    -0.0003949    -0.0013676
    -0.0004013     0.0000000    -0.0010743    -0.0003007    -0.0003426
     0.0000000    -0.0010743     0.0000000    -0.0010471     0.0000000
    -0.0003949    -0.0003007    -0.0010471     0.0000000    -0.0003342
    -0.0013676    -0.0003426     0.0000000    -0.0003342     0.0000000
 l=   3
     0.0000000     0.0000000     0.0000000     0.0000000     0.0000000     0.0000000     0.0000000
     0.0000000     0.0000000     0.0000000     0.0000000     0.0000000     0.0000000     0.0000000
     0.0000000     0.0000000     0.0000000     0.0000000     0.0000000     0.0000000     0.0000000
     0.0000000     0.0000000     0.0000000     0.0000000     0.0000000     0.0000000     0.0000000
     0.0000000     0.0000000     0.0000000     0.0000000     0.0000000     0.0000000     0.0000000
     0.0000000     0.0000000     0.0000000     0.0000000     0.0000000     0.0000000     0.0000000
     0.0000000     0.0000000     0.0000000     0.0000000     0.0000000     0.0000000     0.0000000

 Ion:   11  E_soc:     -0.0618993
 l=   1
     0.0000000    -0.0085650    -0.0085571
    -0.0085650     0.0000000    -0.0085648
    -0.0085571    -0.0085648     0.0000000
 l=   2
     0.0000000    -0.0004013     0.0000000    -0.0003949    -0.0013676
    -0.0004013     0.0000000    -0.0010743    -0.0003007    -0.0003426
     0.0000000    -0.0010743     0.0000000    -0.0010471     0.0000000
    -0.0003949    -0.0003007    -0.0010471     0.0000000    -0.0003342
    -0.0013676    -0.0003426     0.0000000    -0.0003342     0.0000000
 l=   3
     0.0000000     0.0000000     0.0000000     0.0000000     0.0000000     0.0000000     0.0000000
     0.0000000     0.0000000     0.0000000     0.0000000     0.0000000     0.0000000     0.0000000
     0.0000000     0.0000000     0.0000000     0.0000000     0.0000000     0.0000000     0.0000000
     0.0000000     0.0000000     0.0000000     0.0000000     0.0000000     0.0000000     0.0000000
     0.0000000     0.0000000     0.0000000     0.0000000     0.0000000     0.0000000     0.0000000
     0.0000000     0.0000000     0.0000000     0.0000000     0.0000000     0.0000000     0.0000000
     0.0000000     0.0000000     0.0000000     0.0000000     0.0000000     0.0000000     0.0000000

 Ion:   12  E_soc:     -0.0618993
 l=   1
     0.0000000    -0.0085650    -0.0085571
    -0.0085650     0.0000000    -0.0085648
    -0.0085571    -0.0085648     0.0000000
 l=   2
     0.0000000    -0.0004013     0.0000000    -0.0003949    -0.0013676
    -0.0004013     0.0000000    -0.0010743    -0.0003007    -0.0003426
     0.0000000    -0.0010743     0.0000000    -0.0010471     0.0000000
    -0.0003949    -0.0003007    -0.0010471     0.0000000    -0.0003342
    -0.0013676    -0.0003426     0.0000000    -0.0003342     0.0000000
 l=   3
     0.0000000     0.0000000     0.0000000     0.0000000     0.0000000     0.0000000     0.0000000
     0.0000000     0.0000000     0.0000000     0.0000000     0.0000000     0.0000000     0.0000000
     0.0000000     0.0000000     0.0000000     0.0000000     0.0000000     0.0000000     0.0000000
     0.0000000     0.0000000     0.0000000     0.0000000     0.0000000     0.0000000     0.0000000
     0.0000000     0.0000000     0.0000000     0.0000000     0.0000000     0.0000000     0.0000000
     0.0000000     0.0000000     0.0000000     0.0000000     0.0000000     0.0000000     0.0000000
     0.0000000     0.0000000     0.0000000     0.0000000     0.0000000     0.0000000     0.0000000

 Ion:   13  E_soc:     -0.0366115
 l=   1
     0.0000000    -0.0042849    -0.0043109
    -0.0042849     0.0000000    -0.0042818
    -0.0043109    -0.0042818     0.0000000
 l=   2
     0.0000000    -0.0003520     0.0000000    -0.0003563    -0.0009522
    -0.0003520     0.0000000    -0.0013020    -0.0002886    -0.0004240
     0.0000000    -0.0013020     0.0000000    -0.0013200     0.0000000
    -0.0003563    -0.0002886    -0.0013200     0.0000000    -0.0004330
    -0.0009522    -0.0004240     0.0000000    -0.0004330     0.0000000
 l=   3
     0.0000000     0.0000000     0.0000000     0.0000000     0.0000000     0.0000000     0.0000000
     0.0000000     0.0000000     0.0000000     0.0000000     0.0000000     0.0000000     0.0000000
     0.0000000     0.0000000     0.0000000     0.0000000     0.0000000     0.0000000     0.0000000
     0.0000000     0.0000000     0.0000000     0.0000000     0.0000000     0.0000000     0.0000000
     0.0000000     0.0000000     0.0000000     0.0000000     0.0000000     0.0000000     0.0000000
     0.0000000     0.0000000     0.0000000     0.0000000     0.0000000     0.0000000     0.0000000
     0.0000000     0.0000000     0.0000000     0.0000000     0.0000000     0.0000000     0.0000000

 Ion:   14  E_soc:     -0.0366115
 l=   1
     0.0000000    -0.0042849    -0.0043109
    -0.0042849     0.0000000    -0.0042818
    -0.0043109    -0.0042818     0.0000000
 l=   2
     0.0000000    -0.0003520     0.0000000    -0.0003563    -0.0009522
    -0.0003520     0.0000000    -0.0013020    -0.0002886    -0.0004240
     0.0000000    -0.0013020     0.0000000    -0.0013200     0.0000000
    -0.0003563    -0.0002886    -0.0013200     0.0000000    -0.0004330
    -0.0009522    -0.0004240     0.0000000    -0.0004330     0.0000000
 l=   3
     0.0000000     0.0000000     0.0000000     0.0000000     0.0000000     0.0000000     0.0000000
     0.0000000     0.0000000     0.0000000     0.0000000     0.0000000     0.0000000     0.0000000
     0.0000000     0.0000000     0.0000000     0.0000000     0.0000000     0.0000000     0.0000000
     0.0000000     0.0000000     0.0000000     0.0000000     0.0000000     0.0000000     0.0000000
     0.0000000     0.0000000     0.0000000     0.0000000     0.0000000     0.0000000     0.0000000
     0.0000000     0.0000000     0.0000000     0.0000000     0.0000000     0.0000000     0.0000000
     0.0000000     0.0000000     0.0000000     0.0000000     0.0000000     0.0000000     0.0000000

 Ion:   15  E_soc:     -0.0366115
 l=   1
     0.0000000    -0.0042849    -0.0043109
    -0.0042849     0.0000000    -0.0042818
    -0.0043109    -0.0042818     0.0000000
 l=   2
     0.0000000    -0.0003520     0.0000000    -0.0003563    -0.0009522
    -0.0003520     0.0000000    -0.0013020    -0.0002886    -0.0004240
     0.0000000    -0.0013020     0.0000000    -0.0013200     0.0000000
    -0.0003563    -0.0002886    -0.0013200     0.0000000    -0.0004330
    -0.0009522    -0.0004240     0.0000000    -0.0004330     0.0000000
 l=   3
     0.0000000     0.0000000     0.0000000     0.0000000     0.0000000     0.0000000     0.0000000
     0.0000000     0.0000000     0.0000000     0.0000000     0.0000000     0.0000000     0.0000000
     0.0000000     0.0000000     0.0000000     0.0000000     0.0000000     0.0000000     0.0000000
     0.0000000     0.0000000     0.0000000     0.0000000     0.0000000     0.0000000     0.0000000
     0.0000000     0.0000000     0.0000000     0.0000000     0.0000000     0.0000000     0.0000000
     0.0000000     0.0000000     0.0000000     0.0000000     0.0000000     0.0000000     0.0000000
     0.0000000     0.0000000     0.0000000     0.0000000     0.0000000     0.0000000     0.0000000

 Ion:   16  E_soc:     -0.0366115
 l=   1
     0.0000000    -0.0042849    -0.0043109
    -0.0042849     0.0000000    -0.0042818
    -0.0043109    -0.0042818     0.0000000
 l=   2
     0.0000000    -0.0003520     0.0000000    -0.0003563    -0.0009522
    -0.0003520     0.0000000    -0.0013020    -0.0002886    -0.0004240
     0.0000000    -0.0013020     0.0000000    -0.0013200     0.0000000
    -0.0003563    -0.0002886    -0.0013200     0.0000000    -0.0004330
    -0.0009522    -0.0004240     0.0000000    -0.0004330     0.0000000
 l=   3
     0.0000000     0.0000000     0.0000000     0.0000000     0.0000000     0.0000000     0.0000000
     0.0000000     0.0000000     0.0000000     0.0000000     0.0000000     0.0000000     0.0000000
     0.0000000     0.0000000     0.0000000     0.0000000     0.0000000     0.0000000     0.0000000
     0.0000000     0.0000000     0.0000000     0.0000000     0.0000000     0.0000000     0.0000000
     0.0000000     0.0000000     0.0000000     0.0000000     0.0000000     0.0000000     0.0000000
     0.0000000     0.0000000     0.0000000     0.0000000     0.0000000     0.0000000     0.0000000
     0.0000000     0.0000000     0.0000000     0.0000000     0.0000000     0.0000000     0.0000000
 


 total charge     
 
# of ion       s       p       d       tot
------------------------------------------
    1        1.316   2.402   0.000   3.719
    2        1.316   2.402   0.000   3.719
    3        1.318   2.395   0.000   3.713
    4        1.313   2.410   0.000   3.723
    5        1.316   2.402   0.000   3.719
    6        1.316   2.402   0.000   3.719
    7        1.318   2.395   0.000   3.713
    8        1.313   2.410   0.000   3.723
    9        0.257   6.200   8.917  15.374
   10        0.257   6.200   8.916  15.374
   11        0.257   6.200   8.917  15.374
   12        0.257   6.200   8.916  15.374
   13        0.345   6.345   5.829  12.518
   14        0.345   6.345   5.829  12.518
   15        0.345   6.345   5.829  12.518
   16        0.345   6.345   5.829  12.518
--------------------------------------------------
tot         12.937  69.398  58.982 141.316
 


 magnetization (x)
 
# of ion       s       p       d       tot
------------------------------------------
    1       -0.000  -0.000   0.000  -0.000
    2        0.000   0.000   0.000   0.000
    3       -0.000  -0.000   0.000  -0.000
    4       -0.000  -0.000   0.000  -0.000
    5        0.000   0.000   0.000   0.000
    6       -0.000  -0.000   0.000  -0.000
    7       -0.000  -0.000   0.000  -0.000
    8       -0.000  -0.000   0.000  -0.000
    9       -0.000   0.000  -0.000  -0.000
   10        0.000  -0.000  -0.000  -0.000
   11       -0.000   0.000  -0.000  -0.000
   12        0.000  -0.000  -0.000  -0.000
   13        0.000   0.001   0.039   0.039
   14       -0.000  -0.001  -0.039  -0.039
   15        0.000   0.001   0.039   0.039
   16       -0.000  -0.001  -0.039  -0.039
--------------------------------------------------
tot         -0.000  -0.001  -0.001  -0.001
 


 magnetization (y)
 
# of ion       s       p       d       tot
------------------------------------------
    1       -0.000  -0.000   0.000  -0.000
    2        0.000  -0.000   0.000  -0.000
    3       -0.000   0.000   0.000   0.000
    4        0.000   0.000   0.000   0.000
    5        0.000  -0.000   0.000  -0.000
    6       -0.000  -0.000   0.000  -0.000
    7       -0.000   0.000   0.000   0.000
    8        0.000   0.000   0.000   0.000
    9       -0.000   0.000  -0.000  -0.000
   10       -0.000   0.000   0.000   0.000
   11       -0.000   0.000  -0.000  -0.000
   12       -0.000   0.000   0.000   0.000
   13       -0.000  -0.000  -0.004  -0.004
   14       -0.000  -0.000  -0.004  -0.004
   15       -0.000  -0.000  -0.004  -0.004
   16       -0.000  -0.000  -0.004  -0.004
--------------------------------------------------
tot         -0.000  -0.000  -0.016  -0.017
 


 magnetization (z)
 
# of ion       s       p       d       tot
------------------------------------------
    1       -0.000  -0.037   0.000  -0.037
    2        0.000   0.036   0.000   0.037
    3        0.000   0.000   0.000   0.000
    4       -0.000  -0.000   0.000  -0.000
    5        0.000   0.036   0.000   0.037
    6       -0.000  -0.037   0.000  -0.037
    7        0.000   0.000   0.000   0.000
    8       -0.000  -0.000   0.000  -0.000
    9        0.000   0.001  -0.006  -0.005
   10       -0.000  -0.001   0.007   0.005
   11        0.000   0.001  -0.006  -0.005
   12       -0.000  -0.001   0.007   0.005
   13        0.021   0.054   3.654   3.728
   14       -0.021  -0.054  -3.653  -3.728
   15        0.021   0.054   3.654   3.728
   16       -0.021  -0.054  -3.653  -3.728
--------------------------------------------------
tot         -0.000  -0.000   0.001   0.000
 
 BZINTS: Fermi energy:  5.028433;172.000000 electrons
         Band energy:***********;  BLOECHL correction:  0.000000
 BZINTS: Fermi energy:  5.028433;172.000000 electrons
         Band energy:***********;  BLOECHL correction:  0.000000
 BZINTS: Fermi energy:  5.028433;172.000000 electrons
         Band energy:***********;  BLOECHL correction:  0.000000
 BZINTS: Fermi energy:  5.028433;172.000000 electrons
         Band energy:***********;  BLOECHL correction:  0.000000

 total amount of memory used by VASP MPI-rank0   410429. kBytes
=======================================================================

   base      :      30000. kBytes
   nonl-proj :     321650. kBytes
   fftplans  :       2735. kBytes
   grid      :      30965. kBytes
   one-center:        995. kBytes
   wavefun   :      24084. kBytes
 
  
  
 General timing and accounting informations for this job:
 ========================================================
  
                  Total CPU time used (sec):    23236.213
                            User time (sec):    23221.735
                          System time (sec):       14.478
                         Elapsed time (sec):    23494.759
  
                   Maximum memory used (kb):      856156.
                   Average memory used (kb):           0.
  
                          Minor page faults:      2930006
                          Major page faults:         6126
                 Voluntary context switches:         7653
