       N       E                     dE             d eps       ncg     rms          rms(c)
DAV:   1     0.619208303341E+04    0.61921E+04   -0.50354E+05 12288   0.194E+03
DAV:   2    -0.993019081452E+02   -0.62914E+04   -0.61602E+04 13568   0.440E+02
DAV:   3    -0.371506464018E+03   -0.27220E+03   -0.27114E+03 16896   0.999E+01
DAV:   4    -0.375345650765E+03   -0.38392E+01   -0.38389E+01 14848   0.122E+01
DAV:   5    -0.375449879964E+03   -0.10423E+00   -0.10423E+00 15872   0.201E+00    0.751E+01
DAV:   6    -0.334043793499E+03    0.41406E+02   -0.59344E+02 12288   0.817E+01    0.100E+02
DAV:   7    -0.328515787806E+03    0.55280E+01   -0.11765E+02 12800   0.277E+01    0.437E+01
DAV:   8    -0.328726262041E+03   -0.21047E+00   -0.39026E+01 15104   0.214E+01    0.332E+01
DAV:   9    -0.330375641453E+03   -0.16494E+01   -0.10820E+02 15104   0.248E+01    0.237E+01
DAV:  10    -0.326689760672E+03    0.36859E+01   -0.21091E+01 15360   0.156E+01    0.279E+00
DAV:  11    -0.326808304469E+03   -0.11854E+00   -0.13713E+00 19968   0.199E+00    0.355E+00
DAV:  12    -0.326802011179E+03    0.62933E-02   -0.48644E-01 14592   0.179E+00    0.133E+00
DAV:  13    -0.326811658131E+03   -0.96470E-02   -0.50722E-02 16384   0.383E-01    0.889E-01
DAV:  14    -0.326825347002E+03   -0.13689E-01   -0.83917E-02 16640   0.443E-01    0.448E-01
DAV:  15    -0.326825157536E+03    0.18947E-03   -0.64886E-03 12800   0.201E-01    0.200E-01
DAV:  16    -0.326825549573E+03   -0.39204E-03   -0.79795E-04 17920   0.388E-02    0.137E-01
DAV:  17    -0.326826509188E+03   -0.95962E-03   -0.55799E-03 14336   0.799E-02    0.815E-02
DAV:  18    -0.326826584252E+03   -0.75064E-04   -0.28734E-04 14848   0.252E-02    0.635E-02
DAV:  19    -0.326826582266E+03    0.19860E-05   -0.79604E-05 17920   0.173E-02    0.391E-02
DAV:  20    -0.326826589353E+03   -0.70869E-05   -0.80313E-05 18944   0.136E-02    0.226E-02
DAV:  21    -0.326826590444E+03   -0.10916E-05   -0.17644E-05 14848   0.598E-03    0.158E-02
DAV:  22    -0.326826590373E+03    0.71363E-07   -0.10945E-06 14848   0.185E-03    0.136E-02
DAV:  23    -0.326826590699E+03   -0.32649E-06   -0.69953E-07 16640   0.128E-03    0.581E-03
DAV:  24    -0.326826590548E+03    0.15144E-06   -0.13828E-06 18688   0.204E-03    0.263E-03
DAV:  25    -0.326826590540E+03    0.76398E-08   -0.18947E-07 14848   0.821E-04    0.172E-03
DAV:  26    -0.326826590542E+03   -0.22119E-08   -0.76166E-08 12288   0.502E-04
   1 F= -.32682659E+03 E0= -.32682659E+03  d E =0.000000E+00  mag=    -0.0000
