 vasp.5.4.4.18Apr17-6-g9f103f2a35 (build Oct 30 2023 17:30:16) complex          
  
 executed on             LinuxIFC date 2024.06.29  01:35:42
 running on  256 total cores
 distrk:  each k-point on  256 cores,    1 groups
 distr:  one band on NCORES_PER_BAND=   1 cores,  256 groups


--------------------------------------------------------------------------------------------------------


 INCAR:
 POTCAR:    PAW_PBE S 06Sep2000                   
 POTCAR:     PAW_PBE Cu_pv 06Sep2000              
 POTCAR:     PAW_PBE Fe_pv 02Aug2007              

 ----------------------------------------------------------------------------- 
|                                                                             |
|           W    W    AA    RRRRR   N    N  II  N    N   GGGG   !!!           |
|           W    W   A  A   R    R  NN   N  II  NN   N  G    G  !!!           |
|           W    W  A    A  R    R  N N  N  II  N N  N  G       !!!           |
|           W WW W  AAAAAA  RRRRR   N  N N  II  N  N N  G  GGG   !            |
|           WW  WW  A    A  R   R   N   NN  II  N   NN  G    G                |
|           W    W  A    A  R    R  N    N  II  N    N   GGGG   !!!           |
|                                                                             |
|      For optimal performance we recommend to set                            |
|        NCORE= 4 - approx SQRT( number of cores)                             |
|      NCORE specifies how many cores store one orbital (NPAR=cpu/NCORE).     |
|      This setting can  greatly improve the performance of VASP for DFT.     |
|      The default,   NCORE=1            might be grossly inefficient         |
|      on modern multi-core architectures or massively parallel machines.     |
|      Do your own testing !!!!                                               |
|      Unfortunately you need to use the default for GW and RPA calculations. |
|      (for HF NCORE is supported but not extensively tested yet)             |
|                                                                             |
 ----------------------------------------------------------------------------- 

 POTCAR:    PAW_PBE S 06Sep2000                   
   SHA256 =  0fc7481fb0695f01bdc6462160264c5c84044ae9ec85a907d398b887a2bc3132 S/
   COPYR  = (c) Copyright 06Sep2000 Georg Kresse                                
   COPYR  = This file is part of the software VASP. Any use, copying, and all ot
   COPYR  = If you do not have a valid VASP license, you may not use, copy or di
   VRHFIN =S : s2p4                                                             
   LEXCH  = PE                                                                  
   EATOM  =   276.8230 eV,   20.3459 Ry                                         
                                                                                
   TITEL  = PAW_PBE S 06Sep2000                                                 
   LULTRA =        F    use ultrasoft PP ?                                      
   IUNSCR =        1    unscreen: 0-lin 1-nonlin 2-no                           
   RPACOR =    1.500    partial core radius                                     
   POMASS =   32.066; ZVAL   =    6.000    mass and valenz                      
   RCORE  =    1.900    outmost cutoff radius                                   
   RWIGS  =    2.200; RWIGS  =    1.164    wigner-seitz radius (au A)           
   ENMAX  =  258.689; ENMIN  =  194.016 eV                                      
   ICORE  =        2    local potential                                         
   LCOR   =        T    correct aug charges                                     
   LPAW   =        T    paw PP                                                  
   EAUG   =  335.092                                                            
   DEXC   =    0.000                                                            
   RMAX   =    1.942    core radius for proj-oper                               
   RAUG   =    1.300    factor for augmentation sphere                          
   RDEP   =    1.954    radius for radial grids                                 
   RDEPT  =    1.744    core radius for aug-charge                              
                                                                                
   Atomic configuration                                                         
    6 entries                                                                   
     n  l   j            E        occ.                                          
     1  0  0.50     -2405.8406   2.0000                                         
     2  0  0.50      -211.7007   2.0000                                         
     2  1  1.50      -156.4958   6.0000                                         
     3  0  0.50       -17.2562   2.0000                                         
     3  1  0.50        -7.0085   4.0000                                         
     3  2  1.50        -6.8029   0.0000                                         
   Description                                                                  
     l       E           TYP  RCUT    TYP  RCUT                                 
     0    -17.2561641     23  1.900                                             
     0    -15.8743224     23  1.900                                             
     1     -7.0085400     23  1.900                                             
     1     -2.7779785     23  1.900                                             
     2     -6.8029130     23  1.900                                             
  local pseudopotential read in
  partial core-charges read in
  partial kinetic energy density read in
  atomic valenz-charges read in
  non local Contribution for L=           0  read in
    real space projection operators read in
  non local Contribution for L=           0  read in
    real space projection operators read in
  non local Contribution for L=           1  read in
    real space projection operators read in
  non local Contribution for L=           1  read in
    real space projection operators read in
    PAW grid and wavefunctions read in
 
   number of l-projection  operators is LMAX  =           4
   number of lm-projection operators is LMMAX =           8
 
 POTCAR:     PAW_PBE Cu_pv 06Sep2000              
   SHA256 =  cb7b504e2ea725fe1f25c85a9ac77d4012ce94cd394135b722c4e25ec297f1cb Cu
   COPYR  = (c) Copyright 06Sep2000 Georg Kresse                                
   COPYR  = This file is part of the software VASP. Any use, copying, and all ot
   COPYR  = If you do not have a valid VASP license, you may not use, copy or di
   VRHFIN =Cu: d10 p1                                                           
   LEXCH  = PE                                                                  
   EATOM  =  4120.1201 eV,  302.8203 Ry                                         
                                                                                
   TITEL  = PAW_PBE Cu_pv 06Sep2000                                             
   LULTRA =        F    use ultrasoft PP ?                                      
   IUNSCR =        1    unscreen: 0-lin 1-nonlin 2-no                           
   RPACOR =    1.500    partial core radius                                     
   POMASS =   63.546; ZVAL   =   17.000    mass and valenz                      
   RCORE  =    2.000    outmost cutoff radius                                   
   RWIGS  =    2.000; RWIGS  =    1.058    wigner-seitz radius (au A)           
   ENMAX  =  368.648; ENMIN  =  276.486 eV                                      
   RCLOC  =    1.304    cutoff for local pot                                    
   LCOR   =        T    correct aug charges                                     
   LPAW   =        T    paw PP                                                  
   EAUG   =  758.233                                                            
   DEXC   =    0.000                                                            
   RMAX   =    2.046    core radius for proj-oper                               
   RAUG   =    1.300    factor for augmentation sphere                          
   RDEP   =    2.025    radius for radial grids                                 
   RDEPT  =    1.558    core radius for aug-charge                              
                                                                                
   Atomic configuration                                                         
    8 entries                                                                   
     n  l   j            E        occ.                                          
     1  0  0.50     -8850.2467   2.0000                                         
     2  0  0.50     -1062.3498   2.0000                                         
     2  1  1.50      -916.8226   6.0000                                         
     3  0  0.50      -114.6929   2.0000                                         
     3  1  1.50       -72.1325   6.0000                                         
     3  2  2.50        -5.0394  10.0000                                         
     4  0  0.50        -4.6097   1.0000                                         
     4  3  2.50        -1.3606   0.0000                                         
   Description                                                                  
     l       E           TYP  RCUT    TYP  RCUT                                 
     1    -72.1324777     23  1.700                                             
     1     -1.3605826     23  1.700                                             
     2     -5.0393776     23  2.000                                             
     2     -6.3999602     23  2.000                                             
     0     -4.6097062     23  1.800                                             
     0     14.1620818     23  1.800                                             
  local pseudopotential read in
  partial core-charges read in
  partial kinetic energy density read in
  atomic valenz-charges read in
  non local Contribution for L=           1  read in
    real space projection operators read in
  non local Contribution for L=           1  read in
    real space projection operators read in
  non local Contribution for L=           2  read in
    real space projection operators read in
  non local Contribution for L=           2  read in
    real space projection operators read in
  non local Contribution for L=           0  read in
    real space projection operators read in
  non local Contribution for L=           0  read in
    real space projection operators read in
    PAW grid and wavefunctions read in
 
   number of l-projection  operators is LMAX  =           6
   number of lm-projection operators is LMMAX =          18
 
 POTCAR:     PAW_PBE Fe_pv 02Aug2007              
   SHA256 =  5d22e414b1f82158bf2c7ecb8b97b28fd0923e48cadc1c3bf74d524558f5dd32 Fe
   COPYR  = (c) Copyright 02Aug2007 Georg Kresse                                
   COPYR  = This file is part of the software VASP. Any use, copying, and all ot
   COPYR  = If you do not have a valid VASP license, you may not use, copy or di
   VRHFIN =Fe:  3pd7s1                                                          
   LEXCH  = PE                                                                  
   EATOM  =  2457.4239 eV,  180.6156 Ry                                         
                                                                                
   TITEL  = PAW_PBE Fe_pv 02Aug2007                                             
   LULTRA =        F    use ultrasoft PP ?                                      
   IUNSCR =        1    unscreen: 0-lin 1-nonlin 2-no                           
   RPACOR =    1.750    partial core radius                                     
   POMASS =   55.847; ZVAL   =   14.000    mass and valenz                      
   RCORE  =    2.200    outmost cutoff radius                                   
   RWIGS  =    2.200; RWIGS  =    1.164    wigner-seitz radius (au A)           
   ENMAX  =  293.238; ENMIN  =  219.928 eV                                      
   ICORE  =        3    local potential                                         
   LCOR   =        T    correct aug charges                                     
   LPAW   =        T    paw PP                                                  
   EAUG   =  578.342                                                            
   DEXC   =    0.000                                                            
   RMAX   =    2.249    core radius for proj-oper                               
   RAUG   =    1.300    factor for augmentation sphere                          
   RDEP   =    2.296    radius for radial grids                                 
   RDEPT  =    1.766    core radius for aug-charge                              
                                                                                
   Atomic configuration                                                         
    8 entries                                                                   
     n  l   j            E        occ.                                          
     1  0  0.50     -6993.8440   2.0000                                         
     2  0  0.50      -814.6047   2.0000                                         
     2  1  1.50      -693.3689   6.0000                                         
     3  0  0.50       -89.4732   2.0000                                         
     3  1  1.50       -55.6373   6.0000                                         
     3  2  2.50        -3.8151   7.0000                                         
     4  0  0.50        -4.2551   1.0000                                         
     4  3  2.50        -1.3606   0.0000                                         
   Description                                                                  
     l       E           TYP  RCUT    TYP  RCUT                                 
     1    -55.6372668     23  2.000                                             
     1     -5.4423304     23  2.000                                             
     2     -3.8151096     23  2.200                                             
     2     -5.1756922     23  2.200                                             
     0     -4.2550951     23  2.200                                             
     0     27.2116520     23  2.200                                             
     3     -1.3605826     23  2.200                                             
  local pseudopotential read in
  partial core-charges read in
  partial kinetic energy density read in
  atomic valenz-charges read in
  non local Contribution for L=           1  read in
    real space projection operators read in
  non local Contribution for L=           1  read in
    real space projection operators read in
  non local Contribution for L=           2  read in
    real space projection operators read in
  non local Contribution for L=           2  read in
    real space projection operators read in
  non local Contribution for L=           0  read in
    real space projection operators read in
  non local Contribution for L=           0  read in
    real space projection operators read in
    PAW grid and wavefunctions read in
 
   number of l-projection  operators is LMAX  =           6
   number of lm-projection operators is LMMAX =          18
 

 ----------------------------------------------------------------------------- 
|                                                                             |
|  ADVICE TO THIS USER RUNNING 'VASP/VAMP'   (HEAR YOUR MASTER'S VOICE ...):  |
|                                                                             |
|      You have a (more or less) 'large supercell' and for larger cells       |
|      it might be more efficient to use real space projection opertators     |
|      So try LREAL= Auto  in the INCAR   file.                               |
|      Mind:          For very  accurate calculation you might also keep the  |
|      reciprocal projection scheme          (i.e. LREAL=.FALSE.)             |
|                                                                             |
 ----------------------------------------------------------------------------- 


 ----------------------------------------------------------------------------- 
|                                                                             |
|  ADVICE TO THIS USER RUNNING 'VASP/VAMP'   (HEAR YOUR MASTER'S VOICE ...):  |
|                                                                             |
|      You enforced a specific xc-type in the INCAR file,                     |
|      a different type was found on the POTCAR file                          |
|          I HOPE YOU KNOW, WHAT YOU ARE  DOING                               |
|                                                                             |
 ----------------------------------------------------------------------------- 

  PAW_PBE S 06Sep2000                   :
 energy of atom  1       EATOM= -276.8230
 kinetic energy error for atom=    0.0007 (will be added to EATOM!!)
   PAW_PBE Cu_pv 06Sep2000              :
 energy of atom  2       EATOM=-4120.1201
 kinetic energy error for atom=    0.0094 (will be added to EATOM!!)
   PAW_PBE Fe_pv 02Aug2007              :
 energy of atom  3       EATOM=-2457.4239
 kinetic energy error for atom=    0.0025 (will be added to EATOM!!)
 
 
 POSCAR: Fe16 Cu16 S32                           
  positions in direct lattice
  No initial velocities read in
 exchange correlation table for  LEXCH =       14
   RHO(1)=    0.500       N(1)  =     2000
   RHO(2)=  100.500       N(2)  =     4000
 


--------------------------------------------------------------------------------------------------------


 ion  position               nearest neighbor table
   1  0.126  0.126  0.119-  37 2.25  61 2.27  41 2.28  49 2.29
   2  0.626  0.126  0.119-  38 2.25  62 2.27  42 2.28  50 2.29
   3  0.126  0.626  0.119-  39 2.25  63 2.27  43 2.28  51 2.29
   4  0.626  0.626  0.119-  40 2.25  64 2.27  44 2.28  52 2.29
   5  0.374  0.374  0.119-  39 2.25  62 2.27  41 2.28  52 2.29
   6  0.874  0.374  0.119-  40 2.25  61 2.27  42 2.28  51 2.29
   7  0.374  0.874  0.119-  37 2.25  64 2.27  43 2.28  50 2.29
   8  0.874  0.874  0.119-  38 2.25  63 2.27  44 2.28  49 2.29
   9  0.124  0.374  0.869-  41 2.25  51 2.27  45 2.28  55 2.29
  10  0.624  0.374  0.869-  42 2.25  52 2.27  46 2.28  56 2.29
  11  0.124  0.874  0.869-  43 2.25  49 2.27  47 2.28  53 2.29
  12  0.624  0.874  0.869-  44 2.25  50 2.27  48 2.28  54 2.29
  13  0.376  0.126  0.869-  41 2.25  50 2.27  46 2.28  53 2.29
  14  0.876  0.126  0.869-  42 2.25  49 2.27  45 2.28  54 2.29
  15  0.376  0.626  0.869-  43 2.25  52 2.27  48 2.28  55 2.29
  16  0.876  0.626  0.869-  44 2.25  51 2.27  47 2.28  56 2.29
  17  0.124  0.124  0.619-  45 2.25  53 2.27  33 2.28  57 2.29
  18  0.624  0.124  0.619-  46 2.25  54 2.27  34 2.28  58 2.29
  19  0.124  0.624  0.619-  47 2.25  55 2.27  35 2.28  59 2.29
  20  0.624  0.624  0.619-  48 2.25  56 2.27  36 2.28  60 2.29
  21  0.376  0.376  0.619-  46 2.25  55 2.27  36 2.28  57 2.29
  22  0.876  0.376  0.619-  45 2.25  56 2.27  35 2.28  58 2.29
  23  0.376  0.876  0.619-  48 2.25  53 2.27  34 2.28  59 2.29
  24  0.876  0.876  0.619-  47 2.25  54 2.27  33 2.28  60 2.29
  25  0.374  0.124  0.369-  34 2.25  57 2.27  37 2.28  62 2.29
  26  0.874  0.124  0.369-  33 2.25  58 2.27  38 2.28  61 2.29
  27  0.374  0.624  0.369-  36 2.25  59 2.27  39 2.28  64 2.29
  28  0.874  0.624  0.369-  35 2.25  60 2.27  40 2.28  63 2.29
  29  0.126  0.376  0.369-  35 2.25  57 2.27  39 2.28  61 2.29
  30  0.626  0.376  0.369-  36 2.25  58 2.27  40 2.28  62 2.29
  31  0.126  0.876  0.369-  33 2.25  59 2.27  37 2.28  63 2.29
  32  0.626  0.876  0.369-  34 2.25  60 2.27  38 2.28  64 2.29
  33  0.000  0.000  0.505-  26 2.25  31 2.25  17 2.28  24 2.28
  34  0.500  0.000  0.505-  25 2.25  32 2.25  18 2.28  23 2.28
  35  0.000  0.500  0.505-  28 2.25  29 2.25  19 2.28  22 2.28
  36  0.500  0.500  0.505-  27 2.25  30 2.25  20 2.28  21 2.28
  37  0.250  0.000  0.255-   1 2.25   7 2.25  25 2.28  31 2.28
  38  0.750  0.000  0.255-   2 2.25   8 2.25  26 2.28  32 2.28
  39  0.250  0.500  0.255-   3 2.25   5 2.25  27 2.28  29 2.28
  40  0.750  0.500  0.255-   4 2.25   6 2.25  28 2.28  30 2.28
  41  0.250  0.250  0.005-   9 2.25  13 2.25   1 2.28   5 2.28
  42  0.750  0.250  0.005-  10 2.25  14 2.25   2 2.28   6 2.28
  43  0.250  0.750  0.005-  11 2.25  15 2.25   3 2.28   7 2.28
  44  0.750  0.750  0.005-  12 2.25  16 2.25   4 2.28   8 2.28
  45  0.000  0.250  0.755-  17 2.25  22 2.25   9 2.28  14 2.28
  46  0.500  0.250  0.755-  18 2.25  21 2.25  10 2.28  13 2.28
  47  0.000  0.750  0.755-  19 2.25  24 2.25  11 2.28  16 2.28
  48  0.500  0.750  0.755-  20 2.25  23 2.25  12 2.28  15 2.28
  49  0.000  0.000  0.007-  11 2.27  14 2.27   1 2.29   8 2.29
  50  0.500  0.000  0.007-  12 2.27  13 2.27   2 2.29   7 2.29
  51  0.000  0.500  0.007-   9 2.27  16 2.27   3 2.29   6 2.29
  52  0.500  0.500  0.007-  10 2.27  15 2.27   4 2.29   5 2.29
  53  0.250  0.000  0.757-  17 2.27  23 2.27  11 2.29  13 2.29
  54  0.750  0.000  0.757-  18 2.27  24 2.27  12 2.29  14 2.29
  55  0.250  0.500  0.757-  19 2.27  21 2.27   9 2.29  15 2.29
  56  0.750  0.500  0.757-  20 2.27  22 2.27  10 2.29  16 2.29
  57  0.250  0.250  0.507-  25 2.27  29 2.27  17 2.29  21 2.29
  58  0.750  0.250  0.507-  26 2.27  30 2.27  18 2.29  22 2.29
  59  0.250  0.750  0.507-  27 2.27  31 2.27  19 2.29  23 2.29
  60  0.750  0.750  0.507-  28 2.27  32 2.27  20 2.29  24 2.29
  61  0.000  0.250  0.257-   1 2.27   6 2.27  26 2.29  29 2.29
  62  0.500  0.250  0.257-   2 2.27   5 2.27  25 2.29  30 2.29
  63  0.000  0.750  0.257-   3 2.27   8 2.27  28 2.29  31 2.29
  64  0.500  0.750  0.257-   4 2.27   7 2.27  27 2.29  32 2.29
 
  LATTYP: Found a base centered orthorhombic cell.
 ALAT       =    14.0195445211
 B/A-ratio  =     1.1164918092
 C/A-ratio  =     0.7445599951
  
  Lattice vectors:
  
 A1 = (  10.4907250000,   0.5774100000,   0.0000000000)
 A2 = (  -0.5774100000, -10.4907250000,   0.0000000000)
 A3 = (   0.0000000000,   0.0000000000, -10.4383920000)


Analysis of symmetry for initial positions (statically):
=====================================================================
 Subroutine PRICEL returns following result:
 
  LATTYP: Found a face centered orthorhombic cell.
 ALAT       =     7.0097722605
 B/A-ratio  =     1.1164918092
 C/A-ratio  =     1.4891199902
  
  Lattice vectors:
  
 A1 = (  -2.7670337500,  -2.7670337500,   5.2191960000)
 A2 = (  -2.4783287500,   2.4783287500,   5.2191960000)
 A3 = (  -5.2453625000,  -0.2887050000,   0.0000000000)
 
   8 primitive cells build up your supercell.
 

 Routine SETGRP: Setting up the symmetry group for a 
 base centered orthorhombic supercell.


 Subroutine GETGRP returns: Found  4 space group operations
 (whereof  2 operations were pure point group operations)
 out of a pool of  8 trial point group operations.


The static configuration has the point symmetry C_2 .
 The point group associated with its full space group is C_2v.


Analysis of symmetry for dynamics (positions and initial velocities):
=====================================================================
 Subroutine PRICEL returns following result:
 
  LATTYP: Found a face centered orthorhombic cell.
 ALAT       =     7.0097722605
 B/A-ratio  =     1.1164918092
 C/A-ratio  =     1.4891199902
  
  Lattice vectors:
  
 A1 = (  -2.7670337500,  -2.7670337500,   5.2191960000)
 A2 = (  -2.4783287500,   2.4783287500,   5.2191960000)
 A3 = (  -5.2453625000,  -0.2887050000,   0.0000000000)
 
   8 primitive cells build up your supercell.
 

 Routine SETGRP: Setting up the symmetry group for a 
 base centered orthorhombic supercell.


 Subroutine GETGRP returns: Found  4 space group operations
 (whereof  2 operations were pure point group operations)
 out of a pool of  8 trial point group operations.


The dynamic configuration has the point symmetry C_2 .
 The point group associated with its full space group is C_2v.


Analysis of structural, dynamic, and magnetic symmetry:
=====================================================================
 Subroutine PRICEL returns following result:
 
  LATTYP: Found a face centered orthorhombic cell.
 ALAT       =     7.0097722605
 B/A-ratio  =     1.1164918092
 C/A-ratio  =     1.4891199902
  
  Lattice vectors:
  
 A1 = (  -2.7670337500,  -2.7670337500,   5.2191960000)
 A2 = (  -2.4783287500,   2.4783287500,   5.2191960000)
 A3 = (  -5.2453625000,  -0.2887050000,   0.0000000000)
 
   8 primitive cells build up your supercell.
 

 Routine SETGRP: Setting up the symmetry group for a 
 base centered orthorhombic supercell.


 Subroutine GETGRP returns: Found  4 space group operations
 (whereof  2 operations were pure point group operations)
 out of a pool of  8 trial point group operations.


The magnetic configuration has the point symmetry C_2 .
 The point group associated with its full space group is C_2v.


 Subroutine INISYM returns: Found  4 space group operations
 (whereof  2 operations are pure point group operations),
 and found     8 'primitive' translations

 
 
 KPOINTS: Automatic mesh                          

Automatic generation of k-mesh.
Space group operators:
 irot       det(A)        alpha          n_x          n_y          n_z        tau_x        tau_y        tau_z
    1     1.000000     0.000000     1.000000     0.000000     0.000000     0.000000     0.000000     0.000000
    2     1.000000   180.000000     0.000000     0.000000     1.000000     0.000000     0.000000     0.000000
    3    -1.000000   180.000000     0.707107     0.707107     0.000000    -0.750000     0.000000     0.750000
    4    -1.000000   180.000000     0.707107    -0.707107     0.000000    -0.750000     0.000000     0.750000
 
 Subroutine IBZKPT returns following result:
 ===========================================
 
 Found      6 irreducible k-points:
 
 Following reciprocal coordinates:
            Coordinates               Weight
  0.000000  0.000000  0.000000      1.000000
  0.500000  0.000000  0.000000      2.000000
  0.500000  0.500000  0.000000      1.000000
  0.000000  0.000000  0.500000      1.000000
  0.500000  0.000000  0.500000      2.000000
  0.500000  0.500000  0.500000      1.000000
 
 Following cartesian coordinates:
            Coordinates               Weight
  0.000000  0.000000  0.000000      1.000000
  0.047806 -0.002631  0.000000      2.000000
  0.045175  0.045175  0.000000      1.000000
  0.000000  0.000000  0.047900      1.000000
  0.047806 -0.002631  0.047900      2.000000
  0.045175  0.045175  0.047900      1.000000
 
 TETIRR: Found     12 inequivalent tetrahedra from       48
 
 Subroutine IBZKPT_HF returns following result:
 ==============================================
 
 Found      8 k-points in 1st BZ
 the following      8 k-points will be used (e.g. in the exchange kernel)
 Following reciprocal coordinates:   # in IRBZ
  0.000000  0.000000  0.000000    0.12500000   1 t-inv F
  0.500000  0.000000  0.000000    0.12500000   2 t-inv F
  0.500000  0.500000  0.000000    0.12500000   3 t-inv F
  0.000000  0.000000  0.500000    0.12500000   4 t-inv F
  0.500000  0.000000  0.500000    0.12500000   5 t-inv F
  0.500000  0.500000  0.500000    0.12500000   6 t-inv F
  0.000000 -0.500000  0.000000    0.12500000   2 t-inv F spinflp
  0.000000 -0.500000  0.500000    0.12500000   5 t-inv F spinflp


--------------------------------------------------------------------------------------------------------




 Dimension of arrays:
   k-points           NKPTS =      6   k-points in BZ     NKDIM =      6   number of bands    NBANDS=    512
   number of dos      NEDOS =    301   number of ions     NIONS =     64
   non local maximal  LDIM  =      6   non local SUM 2l+1 LMDIM =     18
   total plane-waves  NPLWV = 829440
   max r-space proj   IRMAX =      1   max aug-charges    IRDMAX=  23013
   dimension x,y,z NGX =    96 NGY =   96 NGZ =   90
   dimension x,y,z NGXF=   192 NGYF=  192 NGZF=  180
   support grid    NGXF=   192 NGYF=  192 NGZF=  180
   ions per type =              32  16  16
   NGX,Y,Z   is equivalent  to a cutoff of  15.19, 15.19, 14.33 a.u.
   NGXF,Y,Z  is equivalent  to a cutoff of  30.38, 30.38, 28.67 a.u.

 SYSTEM =  CuFeS2                                  
 POSCAR =  Fe16 Cu16 S32                           

 Startparameter for this run:
   NWRITE =      2    write-flag & timer
   PREC   = accura    normal or accurate (medium, high low for compatibility)
   ISTART =      0    job   : 0-new  1-cont  2-samecut
   ICHARG =      1    charge: 1-file 2-atom 10-const
   ISPIN  =      2    spin polarized calculation?
   LNONCOLLINEAR =      F non collinear calculations
   LSORBIT =      F    spin-orbit coupling
   INIWAV =      1    electr: 0-lowe 1-rand  2-diag
   LASPH  =      F    aspherical Exc in radial PAW
   METAGGA=      F    non-selfconsistent MetaGGA calc.

 Electronic Relaxation 1
   ENCUT  =  700.0 eV  51.45 Ry    7.17 a.u.  22.67 22.67 22.52*2*pi/ulx,y,z
   ENINI  =  700.0     initial cutoff
   ENAUG  =  758.2 eV  augmentation charge cutoff
   NELM   =    500;   NELMIN=  2; NELMDL=  0     # of ELM steps 
   EDIFF  = 0.1E-07   stopping-criterion for ELM
   LREAL  =      F    real-space projection
   NLSPLINE    = F    spline interpolate recip. space projectors
   LCOMPAT=      F    compatible to vasp.4.4
   GGA_COMPAT  = T    GGA compatible to vasp.4.4-vasp.4.6
   LMAXPAW     = -100 max onsite density
   LMAXMIX     =    4 max onsite mixed and CHGCAR
   VOSKOWN=      0    Vosko Wilk Nusair interpolation
   ROPT   =    0.00000   0.00000   0.00000
 Ionic relaxation
   EDIFFG = -.1E-04   stopping-criterion for IOM
   NSW    =      0    number of steps for IOM
   NBLOCK =      1;   KBLOCK =      1    inner block; outer block 
   IBRION =     -1    ionic relax: 0-MD 1-quasi-New 2-CG
   NFREE  =      0    steps in history (QN), initial steepest desc. (CG)
   ISIF   =      2    stress and relaxation
   IWAVPR =     10    prediction:  0-non 1-charg 2-wave 3-comb
   ISYM   =      2    0-nonsym 1-usesym 2-fastsym
   LCORR  =      T    Harris-Foulkes like correction to forces

   POTIM  = 0.5000    time-step for ionic-motion
   TEIN   =    0.0    initial temperature
   TEBEG  =    0.0;   TEEND  =   0.0 temperature during run
   SMASS  =  -3.00    Nose mass-parameter (am)
   estimated Nose-frequenzy (Omega)   =  0.10E-29 period in steps =****** mass=  -0.252E-26a.u.
   SCALEE = 1.0000    scale energy and forces
   NPACO  =    256;   APACO  = 16.0  distance and # of slots for P.C.
   PSTRESS=    0.0 pullay stress

  Mass of Ions in am
   POMASS =  32.07 63.55 55.85
  Ionic Valenz
   ZVAL   =   6.00 17.00 14.00
  Atomic Wigner-Seitz radii
   RWIGS  =  -1.00 -1.00 -1.00
  virtual crystal weights 
   VCA    =   1.00  1.00  1.00
   NELECT =     688.0000    total number of electrons
   NUPDOWN=      -1.0000    fix difference up-down

 DOS related values:
   EMIN   =  10.00;   EMAX   =-10.00  energy-range for DOS
   EFERMI =   0.00
   ISMEAR =    -5;   SIGMA  =   0.03  broadening in eV -4-tet -1-fermi 0-gaus

 Electronic relaxation 2 (details)
   IALGO  =     38    algorithm
   LDIAG  =      T    sub-space diagonalisation (order eigenvalues)
   LSUBROT=      F    optimize rotation matrix (better conditioning)
   TURBO    =      0    0=normal 1=particle mesh
   IRESTART =      0    0=no restart 2=restart with 2 vectors
   NREBOOT  =      0    no. of reboots
   NMIN     =      0    reboot dimension
   EREF     =   0.00    reference energy to select bands
   IMIX   =      4    mixing-type and parameters
     AMIX     =   0.40;   BMIX     =  1.00
     AMIX_MAG =   1.60;   BMIX_MAG =  1.00
     AMIN     =   0.10
     WC   =   100.;   INIMIX=   1;  MIXPRE=   1;  MAXMIX= -45

 Intra band minimization:
   WEIMIN = 0.0000     energy-eigenvalue tresh-hold
   EBREAK =  0.49E-11  absolut break condition
   DEPER  =   0.30     relativ break condition  

   TIME   =   0.40     timestep for ELM

  volume/ion in A,a.u.               =      17.90       120.77
  Fermi-wavevector in a.u.,A,eV,Ry     =   1.381323  2.610322 25.960650  1.908054
  Thomas-Fermi vector in A             =   2.506118
 
 Write flags
   LWAVE        =      T    write WAVECAR
   LDOWNSAMPLE  =      F    k-point downsampling of WAVECAR
   LCHARG       =      T    write CHGCAR
   LVTOT        =      F    write LOCPOT, total local potential
   LVHAR        =      F    write LOCPOT, Hartree potential only
   LELF         =      F    write electronic localiz. function (ELF)
   LORBIT       =     11    0 simple, 1 ext, 2 COOP (PROOUT), +10 PAW based schemes


 Dipole corrections
   LMONO  =      F    monopole corrections only (constant potential shift)
   LDIPOL =      F    correct potential (dipole corrections)
   IDIPOL =      0    1-x, 2-y, 3-z, 4-all directions 
   EPSILON=  1.0000000 bulk dielectric constant

 LDA+U is selected, type is set to LDAUTYPE =  2
   angular momentum for each species LDAUL =     2    2    2
   U (eV)           for each species LDAUU =   0.0  0.1  4.7
   J (eV)           for each species LDAUJ =   0.0  0.0  0.0
 Exchange correlation treatment:
   GGA     =    PS    GGA type
   LEXCH   =    14    internal setting for exchange type
   VOSKOWN=      0    Vosko Wilk Nusair interpolation
   LHFCALC =     F    Hartree Fock is set to
   LHFONE  =     F    Hartree Fock one center treatment
   AEXX    =    0.0000 exact exchange contribution

 Linear response parameters
   LEPSILON=     F    determine dielectric tensor
   LRPA    =     F    only Hartree local field effects (RPA)
   LNABLA  =     F    use nabla operator in PAW spheres
   LVEL    =     F    velocity operator in full k-point grid
   LINTERFAST=   F  fast interpolation
   KINTER  =     0    interpolate to denser k-point grid
   CSHIFT  =0.1000    complex shift for real part using Kramers Kronig
   OMEGAMAX=  -1.0    maximum frequency
   DEG_THRESHOLD= 0.2000000E-02 threshold for treating states as degnerate
   RTIME   =   -0.100 relaxation time in fs
  (WPLASMAI=    0.000 imaginary part of plasma frequency in eV, 0.658/RTIME)
   DFIELD  = 0.0000000 0.0000000 0.0000000 field for delta impulse in time
 
 Orbital magnetization related:
   ORBITALMAG=     F  switch on orbital magnetization
   LCHIMAG   =     F  perturbation theory with respect to B field
   DQ        =  0.001000  dq finite difference perturbation B field
   LLRAUG    =     F  two centre corrections for induced B field

 PEAD related settings:
   LPEAD      =     T    switch on PEAD
   IPEAD      =     4    finite difference order for dpsi/dk
   LCALCPOL   =     T    calculate macroscopic polarization
   LCALCEPS   =     F    calculate dielectric tensor
   EFIELD_PEAD=    0.0000    0.0000    0.0000
   SKIP_EDOTP =     F
   LRPA       =     F
   SKIP_SCF   =     F


--------------------------------------------------------------------------------------------------------


 Static calculation
 charge density and potential will be updated during run
 spin polarized calculation
 Variant of blocked Davidson
 Davidson routine will perform the subspace rotation
 perform sub-space diagonalisation
    after iterative eigenvector-optimisation
 modified Broyden-mixing scheme, WC =      100.0
 initial mixing is a Kerker type mixing with AMIX =  0.4000 and BMIX =      1.0000
 Hartree-type preconditioning will be used
 using additional bands          168
 reciprocal scheme for non local part
 use partial core corrections
 calculate Harris-corrections to forces 
   (improved forces if not selfconsistent)
 use gradient corrections 
 use of overlap-Matrix (Vanderbilt PP)
 Fermi weights with tetrahedron method with Bloechl corrections


--------------------------------------------------------------------------------------------------------


  energy-cutoff  :      700.00
  volume of cell :     1145.32
      direct lattice vectors                 reciprocal lattice vectors
    10.490725000  0.577410000  0.000000000     0.095611944 -0.005262486  0.000000000
     0.577410000 10.490725000  0.000000000    -0.005262486  0.095611944  0.000000000
     0.000000000  0.000000000 10.438392000     0.000000000  0.000000000  0.095800196

  length of vectors
    10.506603320 10.506603320 10.438392000     0.095756658  0.095756658  0.095800196


 
 k-points in units of 2pi/SCALE and weight: Automatic mesh                          
   0.00000000  0.00000000  0.00000000       0.125
   0.04780597 -0.00263124  0.00000000       0.250
   0.04517473  0.04517473  0.00000000       0.125
   0.00000000  0.00000000  0.04790010       0.125
   0.04780597 -0.00263124  0.04790010       0.250
   0.04517473  0.04517473  0.04790010       0.125
 
 k-points in reciprocal lattice and weights: Automatic mesh                          
   0.00000000  0.00000000  0.00000000       0.125
   0.50000000  0.00000000  0.00000000       0.250
   0.50000000  0.50000000  0.00000000       0.125
   0.00000000  0.00000000  0.50000000       0.125
   0.50000000  0.00000000  0.50000000       0.250
   0.50000000  0.50000000  0.50000000       0.125
 
 position of ions in fractional coordinates (direct lattice) 
   0.12606100  0.12562500  0.11897900
   0.62606100  0.12562500  0.11897900
   0.12606100  0.62562500  0.11897900
   0.62606100  0.62562500  0.11897900
   0.37393900  0.37437500  0.11897900
   0.87393900  0.37437500  0.11897900
   0.37393900  0.87437500  0.11897900
   0.87393900  0.87437500  0.11897900
   0.12437500  0.37393900  0.86897900
   0.62437500  0.37393900  0.86897900
   0.12437500  0.87393900  0.86897900
   0.62437500  0.87393900  0.86897900
   0.37562500  0.12606100  0.86897900
   0.87562500  0.12606100  0.86897900
   0.37562500  0.62606100  0.86897900
   0.87562500  0.62606100  0.86897900
   0.12393900  0.12437500  0.61897900
   0.62393900  0.12437500  0.61897900
   0.12393900  0.62437500  0.61897900
   0.62393900  0.62437500  0.61897900
   0.37606100  0.37562500  0.61897900
   0.87606100  0.37562500  0.61897900
   0.37606100  0.87562500  0.61897900
   0.87606100  0.87562500  0.61897900
   0.37437500  0.12393900  0.36897900
   0.87437500  0.12393900  0.36897900
   0.37437500  0.62393900  0.36897900
   0.87437500  0.62393900  0.36897900
   0.12562500  0.37606100  0.36897900
   0.62562500  0.37606100  0.36897900
   0.12562500  0.87606100  0.36897900
   0.62562500  0.87606100  0.36897900
   0.00000000  0.00000000  0.50522200
   0.50000000  0.00000000  0.50522200
   0.00000000  0.50000000  0.50522200
   0.50000000  0.50000000  0.50522200
   0.25000000  0.00000000  0.25522200
   0.75000000  0.00000000  0.25522200
   0.25000000  0.50000000  0.25522200
   0.75000000  0.50000000  0.25522200
   0.25000000  0.25000000  0.00522200
   0.75000000  0.25000000  0.00522200
   0.25000000  0.75000000  0.00522200
   0.75000000  0.75000000  0.00522200
   0.00000000  0.25000000  0.75522200
   0.50000000  0.25000000  0.75522200
   0.00000000  0.75000000  0.75522200
   0.50000000  0.75000000  0.75522200
   0.00000000  0.00000000  0.00682000
   0.50000000  0.00000000  0.00682000
   0.00000000  0.50000000  0.00682000
   0.50000000  0.50000000  0.00682000
   0.25000000  0.00000000  0.75682000
   0.75000000  0.00000000  0.75682000
   0.25000000  0.50000000  0.75682000
   0.75000000  0.50000000  0.75682000
   0.25000000  0.25000000  0.50682000
   0.75000000  0.25000000  0.50682000
   0.25000000  0.75000000  0.50682000
   0.75000000  0.75000000  0.50682000
   0.00000000  0.25000000  0.25682000
   0.50000000  0.25000000  0.25682000
   0.00000000  0.75000000  0.25682000
   0.50000000  0.75000000  0.25682000
 
 position of ions in cartesian coordinates  (Angst):
   1.39500842  1.39068621  1.24194944
   6.64037092  1.67939121  1.24194944
   1.68371342  6.63604871  1.24194944
   6.92907592  6.92475371  1.24194944
   4.13905908  4.14338129  1.24194944
   9.38442158  4.43208629  1.24194944
   4.42776408  9.38874379  1.24194944
   9.67312658  9.67744879  1.24194944
   1.52070004  3.99470658  9.07074344
   6.76606254  4.28341158  9.07074344
   1.80940504  9.24006908  9.07074344
   7.05476754  9.52877408  9.07074344
   4.01336746  1.53936092  9.07074344
   9.25872996  1.82806592  9.07074344
   4.30207246  6.78472342  9.07074344
   9.54743496  7.07342842  9.07074344
   1.37202533  1.37634754  6.46114544
   6.61738783  1.66505254  6.46114544
   1.66073033  6.62171004  6.46114544
   6.90609283  6.91041504  6.46114544
   4.16204217  4.15771996  6.46114544
   9.40740467  4.44642496  6.46114544
   4.45074717  9.40308246  6.46114544
   9.69610967  9.69178746  6.46114544
   3.99902879  1.51637783  3.85154744
   9.24439129  1.80508283  3.85154744
   4.28773379  6.76174033  3.85154744
   9.53309629  7.05044533  3.85154744
   1.53503871  4.01768967  3.85154744
   6.78040121  4.30639467  3.85154744
   1.82374371  9.26305217  3.85154744
   7.06910621  9.55175717  3.85154744
   0.00000000  0.00000000  5.27370528
   5.24536250  0.28870500  5.27370528
   0.28870500  5.24536250  5.27370528
   5.53406750  5.53406750  5.27370528
   2.62268125  0.14435250  2.66410728
   7.86804375  0.43305750  2.66410728
   2.91138625  5.38971500  2.66410728
   8.15674875  5.67842000  2.66410728
   2.76703375  2.76703375  0.05450928
   8.01239625  3.05573875  0.05450928
   3.05573875  8.01239625  0.05450928
   8.30110125  8.30110125  0.05450928
   0.14435250  2.62268125  7.88330328
   5.38971500  2.91138625  7.88330328
   0.43305750  7.86804375  7.88330328
   5.67842000  8.15674875  7.88330328
   0.00000000  0.00000000  0.07118983
   5.24536250  0.28870500  0.07118983
   0.28870500  5.24536250  0.07118983
   5.53406750  5.53406750  0.07118983
   2.62268125  0.14435250  7.89998383
   7.86804375  0.43305750  7.89998383
   2.91138625  5.38971500  7.89998383
   8.15674875  5.67842000  7.89998383
   2.76703375  2.76703375  5.29038583
   8.01239625  3.05573875  5.29038583
   3.05573875  8.01239625  5.29038583
   8.30110125  8.30110125  5.29038583
   0.14435250  2.62268125  2.68078783
   5.38971500  2.91138625  2.68078783
   0.43305750  7.86804375  2.68078783
   5.67842000  8.15674875  2.68078783
 


--------------------------------------------------------------------------------------------------------


 k-point  1 :   0.0000 0.0000 0.0000  plane waves:   48255
 k-point  2 :   0.5000 0.0000 0.0000  plane waves:   48186
 k-point  3 :   0.5000 0.5000 0.0000  plane waves:   48160
 k-point  4 :   0.0000 0.0000 0.5000  plane waves:   48158
 k-point  5 :   0.5000 0.0000 0.5000  plane waves:   48136
 k-point  6 :   0.5000 0.5000 0.5000  plane waves:   48112

 maximum and minimum number of plane-waves per node :     48255    48112

 maximum number of plane-waves:     48255
 maximum index in each direction: 
   IXMAX=   22   IYMAX=   22   IZMAX=   22
   IXMIN=  -23   IYMIN=  -23   IZMIN=  -23


 serial   3D FFT for wavefunctions
 parallel 3D FFT for charge:
    minimum data exchange during FFTs selected (reduces bandwidth)


 total amount of memory used by VASP MPI-rank0   300225. kBytes
=======================================================================

   base      :      30000. kBytes
   nonl-proj :     174956. kBytes
   fftplans  :       4588. kBytes
   grid      :      69719. kBytes
   one-center:       1990. kBytes
   wavefun   :      18972. kBytes
 
     INWAV:  cpu time    0.0000: real time    0.0000
 Broyden mixing: mesh for mixing (old mesh)
   NGX = 45   NGY = 45   NGZ = 45
  (NGX  =192   NGY  =192   NGZ  =180)
  gives a total of  91125 points

 initial charge density was supplied:
 charge density of overlapping atoms calculated
 number of electron     688.0000000 magnetization       0.0000000
 keeping initial charge density in first step


--------------------------------------------------------------------------------------------------------


 Maximum index for augmentation-charges          899 (set IRDMAX)


--------------------------------------------------------------------------------------------------------


 First call to EWALD:  gamma=   0.169
 Maximum number of real-space cells 3x 3x 3
 Maximum number of reciprocal cells 3x 3x 3

    FEWALD:  cpu time    0.0021: real time    0.0022


--------------------------------------- Iteration      1(   1)  ---------------------------------------


    POTLOK:  cpu time    0.3334: real time    0.3680
    SETDIJ:  cpu time    0.0146: real time    0.0147
     EDDAV:  cpu time   62.5742: real time   63.1593
 BZINTS: Fermi energy: 16.867420;688.000000 electrons
         Band energy:***********;  BLOECHL correction: -0.013415
       DOS:  cpu time    0.0202: real time    0.0203
    --------------------------------------------
      LOOP:  cpu time   62.9423: real time   63.5623

 eigenvalue-minimisations  : 12288
 total energy-change (2. order) : 0.6192083E+04  (-0.5035376E+05)
 number of electron     688.0000000 magnetization       0.0000000
 augmentation part      688.0000000 magnetization       0.0000000

 Free energy of the ion-electron system (eV)
  ---------------------------------------------------
  alpha Z        PSCENC =      2367.15489865
  Ewald energy   TEWEN  =    -62620.23555418
  -Hartree energ DENC   =    -44218.91486171
  -exchange      EXHF   =         0.00000000
  -V(xc)+E(xc)   XCENC  =      3320.05234065
  PAW double counting   =     94592.23312189   -98164.79192727
  entropy T*S    EENTRO =         0.00000000
  eigenvalues    EBANDS =     -3103.48009224
  atomic energy  EATOM  =    114020.06510763
  Solvation  Ediel_sol  =         0.00000000
  ---------------------------------------------------
  free energy    TOTEN  =      6192.08303341 eV

  energy without entropy =     6192.08303341  energy(sigma->0) =     6192.08303341


--------------------------------------------------------------------------------------------------------




--------------------------------------- Iteration      1(   2)  ---------------------------------------


     EDDAV:  cpu time   74.6297: real time   75.1960
 BZINTS: Fermi energy:  6.745864;688.000000 electrons
         Band energy:***********;  BLOECHL correction:  0.000000
       DOS:  cpu time    0.0032: real time    0.0032
    --------------------------------------------
      LOOP:  cpu time   74.6329: real time   75.1993

 eigenvalue-minimisations  : 13568
 total energy-change (2. order) :-0.6291385E+04  (-0.6160242E+04)
 number of electron     688.0000000 magnetization       0.0000000
 augmentation part      688.0000000 magnetization       0.0000000

 Free energy of the ion-electron system (eV)
  ---------------------------------------------------
  alpha Z        PSCENC =      2367.15489865
  Ewald energy   TEWEN  =    -62620.23555418
  -Hartree energ DENC   =    -44218.91486171
  -exchange      EXHF   =         0.00000000
  -V(xc)+E(xc)   XCENC  =      3320.05234065
  PAW double counting   =     94592.23312189   -98164.79192727
  entropy T*S    EENTRO =         0.00000000
  eigenvalues    EBANDS =     -9394.86503380
  atomic energy  EATOM  =    114020.06510763
  Solvation  Ediel_sol  =         0.00000000
  ---------------------------------------------------
  free energy    TOTEN  =       -99.30190815 eV

  energy without entropy =      -99.30190815  energy(sigma->0) =      -99.30190815


--------------------------------------------------------------------------------------------------------




--------------------------------------- Iteration      1(   3)  ---------------------------------------


     EDDAV:  cpu time  115.5715: real time  116.3689
 BZINTS: Fermi energy:  6.082988;688.000000 electrons
         Band energy:***********;  BLOECHL correction:  0.000000
       DOS:  cpu time    0.0028: real time    0.0028
    --------------------------------------------
      LOOP:  cpu time  115.5743: real time  116.3717

 eigenvalue-minimisations  : 16896
 total energy-change (2. order) :-0.2722046E+03  (-0.2711416E+03)
 number of electron     688.0000000 magnetization       0.0000000
 augmentation part      688.0000000 magnetization       0.0000000

 Free energy of the ion-electron system (eV)
  ---------------------------------------------------
  alpha Z        PSCENC =      2367.15489865
  Ewald energy   TEWEN  =    -62620.23555418
  -Hartree energ DENC   =    -44218.91486171
  -exchange      EXHF   =         0.00000000
  -V(xc)+E(xc)   XCENC  =      3320.05234065
  PAW double counting   =     94592.23312189   -98164.79192727
  entropy T*S    EENTRO =         0.00000000
  eigenvalues    EBANDS =     -9667.06958967
  atomic energy  EATOM  =    114020.06510763
  Solvation  Ediel_sol  =         0.00000000
  ---------------------------------------------------
  free energy    TOTEN  =      -371.50646402 eV

  energy without entropy =     -371.50646402  energy(sigma->0) =     -371.50646402


--------------------------------------------------------------------------------------------------------




--------------------------------------- Iteration      1(   4)  ---------------------------------------


     EDDAV:  cpu time   94.8241: real time   95.4986
 BZINTS: Fermi energy:  6.135506;688.000000 electrons
         Band energy:***********;  BLOECHL correction:  0.000000
       DOS:  cpu time    0.0028: real time    0.0028
    --------------------------------------------
      LOOP:  cpu time   94.8269: real time   95.5013

 eigenvalue-minimisations  : 14848
 total energy-change (2. order) :-0.3839187E+01  (-0.3838949E+01)
 number of electron     688.0000000 magnetization       0.0000000
 augmentation part      688.0000000 magnetization       0.0000000

 Free energy of the ion-electron system (eV)
  ---------------------------------------------------
  alpha Z        PSCENC =      2367.15489865
  Ewald energy   TEWEN  =    -62620.23555418
  -Hartree energ DENC   =    -44218.91486171
  -exchange      EXHF   =         0.00000000
  -V(xc)+E(xc)   XCENC  =      3320.05234065
  PAW double counting   =     94592.23312189   -98164.79192727
  entropy T*S    EENTRO =         0.00000000
  eigenvalues    EBANDS =     -9670.90877642
  atomic energy  EATOM  =    114020.06510763
  Solvation  Ediel_sol  =         0.00000000
  ---------------------------------------------------
  free energy    TOTEN  =      -375.34565076 eV

  energy without entropy =     -375.34565076  energy(sigma->0) =     -375.34565076


--------------------------------------------------------------------------------------------------------




--------------------------------------- Iteration      1(   5)  ---------------------------------------


     EDDAV:  cpu time  108.1616: real time  108.9111
 BZINTS: Fermi energy:  6.239597;688.000000 electrons
         Band energy:***********;  BLOECHL correction:  0.000000
       DOS:  cpu time    0.0032: real time    0.0032
    CHARGE:  cpu time    1.2399: real time    1.2483
    MIXING:  cpu time    0.0046: real time    0.0046
    --------------------------------------------
      LOOP:  cpu time  109.4093: real time  110.1672

 eigenvalue-minimisations  : 15872
 total energy-change (2. order) :-0.1042292E+00  (-0.1042286E+00)
 number of electron     688.0000467 magnetization      -0.0000000
 augmentation part      260.9672339 magnetization      -0.0000000

 Broyden mixing:
  rms(total) = 0.75128E+01    rms(broyden)= 0.75128E+01
  rms(prec ) = 0.90156E+01
  weight for this iteration     100.00

 Free energy of the ion-electron system (eV)
  ---------------------------------------------------
  alpha Z        PSCENC =      2367.15489865
  Ewald energy   TEWEN  =    -62620.23555418
  -Hartree energ DENC   =    -44218.91486171
  -exchange      EXHF   =         0.00000000
  -V(xc)+E(xc)   XCENC  =      3320.05234065
  PAW double counting   =     94592.23312189   -98164.79192727
  entropy T*S    EENTRO =         0.00000000
  eigenvalues    EBANDS =     -9671.01300562
  atomic energy  EATOM  =    114020.06510763
  Solvation  Ediel_sol  =         0.00000000
  ---------------------------------------------------
  free energy    TOTEN  =      -375.44987996 eV

  energy without entropy =     -375.44987996  energy(sigma->0) =     -375.44987996


--------------------------------------------------------------------------------------------------------




--------------------------------------- Iteration      1(   6)  ---------------------------------------


    POTLOK:  cpu time    0.1200: real time    0.1228
    SETDIJ:  cpu time    0.0127: real time    0.0127
     EDDAV:  cpu time   64.0398: real time   64.5363
 BZINTS: Fermi energy:  4.339960;688.000000 electrons
         Band energy:***********;  BLOECHL correction:  0.000000
       DOS:  cpu time    0.0028: real time    0.0028
    CHARGE:  cpu time    1.2403: real time    1.2471
    MIXING:  cpu time    0.0024: real time    0.0443
    --------------------------------------------
      LOOP:  cpu time   65.4180: real time   65.9661

 eigenvalue-minimisations  : 12288
 total energy-change (2. order) : 0.4140609E+02  (-0.5934366E+02)
 number of electron     688.0000504 magnetization      -0.0000000
 augmentation part      296.6453207 magnetization      -0.0000000

 Broyden mixing:
  rms(total) = 0.10046E+02    rms(broyden)= 0.10046E+02
  rms(prec ) = 0.10521E+02
  weight for this iteration     100.00

 eigenvalues of (default mixing * dielectric matrix)
  average eigenvalue GAMMA=   0.1705
  0.1705

 Free energy of the ion-electron system (eV)
  ---------------------------------------------------
  alpha Z        PSCENC =      2367.15489865
  Ewald energy   TEWEN  =    -62620.23555418
  -Hartree energ DENC   =    -42255.67242543
  -exchange      EXHF   =         0.00000000
  -V(xc)+E(xc)   XCENC  =      3267.36950897
  PAW double counting   =     96387.97770651   -99746.16474955
  entropy T*S    EENTRO =         0.00000000
  eigenvalues    EBANDS =    -11754.53828610
  atomic energy  EATOM  =    114020.06510763
  Solvation  Ediel_sol  =         0.00000000
  ---------------------------------------------------
  free energy    TOTEN  =      -334.04379350 eV

  energy without entropy =     -334.04379350  energy(sigma->0) =     -334.04379350


--------------------------------------------------------------------------------------------------------




--------------------------------------- Iteration      1(   7)  ---------------------------------------


    POTLOK:  cpu time    0.1188: real time    0.1198
    SETDIJ:  cpu time    0.0127: real time    0.0128
     EDDAV:  cpu time   70.7076: real time   71.2426
 BZINTS: Fermi energy:  4.784334;688.000000 electrons
         Band energy:***********;  BLOECHL correction:  0.000000
       DOS:  cpu time    0.0028: real time    0.0028
    CHARGE:  cpu time    1.4283: real time    1.4370
    MIXING:  cpu time    0.0018: real time    0.0366
    --------------------------------------------
      LOOP:  cpu time   72.2720: real time   72.8516

 eigenvalue-minimisations  : 12800
 total energy-change (2. order) : 0.5528006E+01  (-0.1176498E+02)
 number of electron     688.0000494 magnetization       0.0000000
 augmentation part      285.9950882 magnetization       0.0000000

 Broyden mixing:
  rms(total) = 0.43682E+01    rms(broyden)= 0.43682E+01
  rms(prec ) = 0.44462E+01
  weight for this iteration     100.00

 eigenvalues of (default mixing * dielectric matrix)
  average eigenvalue GAMMA=   0.6158
  0.7689  0.4627

 Free energy of the ion-electron system (eV)
  ---------------------------------------------------
  alpha Z        PSCENC =      2367.15489865
  Ewald energy   TEWEN  =    -62620.23555418
  -Hartree energ DENC   =    -42748.91276541
  -exchange      EXHF   =         0.00000000
  -V(xc)+E(xc)   XCENC  =      3278.88244065
  PAW double counting   =     99816.78675899  -103333.19708023
  entropy T*S    EENTRO =         0.00000000
  eigenvalues    EBANDS =    -11109.05959392
  atomic energy  EATOM  =    114020.06510763
  Solvation  Ediel_sol  =         0.00000000
  ---------------------------------------------------
  free energy    TOTEN  =      -328.51578781 eV

  energy without entropy =     -328.51578781  energy(sigma->0) =     -328.51578781


--------------------------------------------------------------------------------------------------------




--------------------------------------- Iteration      1(   8)  ---------------------------------------


    POTLOK:  cpu time    0.1312: real time    0.1353
    SETDIJ:  cpu time    0.0163: real time    0.0164
     EDDAV:  cpu time   98.5088: real time   99.2018
 BZINTS: Fermi energy:  5.317424;688.000000 electrons
         Band energy:***********;  BLOECHL correction:  0.000000
       DOS:  cpu time    0.0028: real time    0.0028
    CHARGE:  cpu time    1.2513: real time    1.2595
    MIXING:  cpu time    0.0015: real time    0.0015
    --------------------------------------------
      LOOP:  cpu time   99.9118: real time  100.6173

 eigenvalue-minimisations  : 15104
 total energy-change (2. order) :-0.2104742E+00  (-0.3902612E+01)
 number of electron     688.0000488 magnetization       0.0000000
 augmentation part      281.5408881 magnetization       0.0000000

 Broyden mixing:
  rms(total) = 0.33173E+01    rms(broyden)= 0.33173E+01
  rms(prec ) = 0.36183E+01
  weight for this iteration     100.00

 eigenvalues of (default mixing * dielectric matrix)
  average eigenvalue GAMMA=   0.8573
  1.5107  0.6204  0.4409

 Free energy of the ion-electron system (eV)
  ---------------------------------------------------
  alpha Z        PSCENC =      2367.15489865
  Ewald energy   TEWEN  =    -62620.23555418
  -Hartree energ DENC   =    -43007.03182677
  -exchange      EXHF   =         0.00000000
  -V(xc)+E(xc)   XCENC  =      3291.35487539
  PAW double counting   =    105257.66018785  -108872.88299498
  entropy T*S    EENTRO =         0.00000000
  eigenvalues    EBANDS =    -10764.81095563
  atomic energy  EATOM  =    114020.06510763
  Solvation  Ediel_sol  =         0.00000000
  ---------------------------------------------------
  free energy    TOTEN  =      -328.72626204 eV

  energy without entropy =     -328.72626204  energy(sigma->0) =     -328.72626204


--------------------------------------------------------------------------------------------------------




--------------------------------------- Iteration      1(   9)  ---------------------------------------


    POTLOK:  cpu time    0.1213: real time    0.1223
    SETDIJ:  cpu time    0.0127: real time    0.0127
     EDDAV:  cpu time   92.9715: real time   93.6418
 BZINTS: Fermi energy:  4.795974;688.000000 electrons
         Band energy:***********;  BLOECHL correction:  0.000000
       DOS:  cpu time    0.0028: real time    0.0028
    CHARGE:  cpu time    1.2369: real time    1.2450
    MIXING:  cpu time    0.0014: real time    0.0014
    --------------------------------------------
      LOOP:  cpu time   94.3466: real time   95.0260

 eigenvalue-minimisations  : 15104
 total energy-change (2. order) :-0.1649379E+01  (-0.1082041E+02)
 number of electron     688.0000491 magnetization       0.0000000
 augmentation part      282.1556245 magnetization       0.0000000

 Broyden mixing:
  rms(total) = 0.23690E+01    rms(broyden)= 0.23690E+01
  rms(prec ) = 0.28199E+01
  weight for this iteration     100.00

 eigenvalues of (default mixing * dielectric matrix)
  average eigenvalue GAMMA=   0.9775
  2.3869  0.6050  0.5894  0.3287

 Free energy of the ion-electron system (eV)
  ---------------------------------------------------
  alpha Z        PSCENC =      2367.15489865
  Ewald energy   TEWEN  =    -62620.23555418
  -Hartree energ DENC   =    -42791.56776660
  -exchange      EXHF   =         0.00000000
  -V(xc)+E(xc)   XCENC  =      3283.95135763
  PAW double counting   =    109539.26964646  -113189.53044619
  entropy T*S    EENTRO =         0.00000000
  eigenvalues    EBANDS =    -10939.48288485
  atomic energy  EATOM  =    114020.06510763
  Solvation  Ediel_sol  =         0.00000000
  ---------------------------------------------------
  free energy    TOTEN  =      -330.37564145 eV

  energy without entropy =     -330.37564145  energy(sigma->0) =     -330.37564145


--------------------------------------------------------------------------------------------------------




--------------------------------------- Iteration      1(  10)  ---------------------------------------


    POTLOK:  cpu time    0.1163: real time    0.1208
    SETDIJ:  cpu time    0.0127: real time    0.0128
     EDDAV:  cpu time   94.2412: real time   94.9138
 BZINTS: Fermi energy:  5.155620;688.000000 electrons
         Band energy:***********;  BLOECHL correction:  0.000000
       DOS:  cpu time    0.0031: real time    0.0032
    CHARGE:  cpu time    1.2367: real time    1.2450
    MIXING:  cpu time    0.0016: real time    0.0028
    --------------------------------------------
      LOOP:  cpu time   95.6116: real time   96.2983

 eigenvalue-minimisations  : 15360
 total energy-change (2. order) : 0.3685881E+01  (-0.2109065E+01)
 number of electron     688.0000488 magnetization       0.0000000
 augmentation part      282.4456546 magnetization       0.0000000

 Broyden mixing:
  rms(total) = 0.27911E+00    rms(broyden)= 0.27905E+00
  rms(prec ) = 0.31630E+00
  weight for this iteration     100.00

 eigenvalues of (default mixing * dielectric matrix)
  average eigenvalue GAMMA=   0.9219
  2.3529  0.7829  0.5763  0.5763  0.3210

 Free energy of the ion-electron system (eV)
  ---------------------------------------------------
  alpha Z        PSCENC =      2367.15489865
  Ewald energy   TEWEN  =    -62620.23555418
  -Hartree energ DENC   =    -42820.08545654
  -exchange      EXHF   =         0.00000000
  -V(xc)+E(xc)   XCENC  =      3287.20104304
  PAW double counting   =    113172.81834343  -116869.29587057
  entropy T*S    EENTRO =         0.00000000
  eigenvalues    EBANDS =    -10864.31227213
  atomic energy  EATOM  =    114020.06510763
  Solvation  Ediel_sol  =         0.00000000
  ---------------------------------------------------
  free energy    TOTEN  =      -326.68976067 eV

  energy without entropy =     -326.68976067  energy(sigma->0) =     -326.68976067


--------------------------------------------------------------------------------------------------------




--------------------------------------- Iteration      1(  11)  ---------------------------------------


    POTLOK:  cpu time    0.1192: real time    0.1203
    SETDIJ:  cpu time    0.0127: real time    0.0128
     EDDAV:  cpu time  146.6051: real time  147.5803
 BZINTS: Fermi energy:  5.171117;688.000000 electrons
         Band energy:***********;  BLOECHL correction:  0.000000
       DOS:  cpu time    0.0032: real time    0.0032
    CHARGE:  cpu time    1.2383: real time    1.2464
    MIXING:  cpu time    0.0014: real time    0.0014
    --------------------------------------------
      LOOP:  cpu time  147.9798: real time  148.9644

 eigenvalue-minimisations  : 19968
 total energy-change (2. order) :-0.1185438E+00  (-0.1371296E+00)
 number of electron     688.0000488 magnetization       0.0000000
 augmentation part      282.3900361 magnetization       0.0000000

 Broyden mixing:
  rms(total) = 0.35549E+00    rms(broyden)= 0.35547E+00
  rms(prec ) = 0.39117E+00
  weight for this iteration     100.00

 eigenvalues of (default mixing * dielectric matrix)
  average eigenvalue GAMMA=   0.9020
  2.2441  0.8253  0.7186  0.7186  0.5718  0.3337

 Free energy of the ion-electron system (eV)
  ---------------------------------------------------
  alpha Z        PSCENC =      2367.15489865
  Ewald energy   TEWEN  =    -62620.23555418
  -Hartree energ DENC   =    -42839.73525961
  -exchange      EXHF   =         0.00000000
  -V(xc)+E(xc)   XCENC  =      3286.99550192
  PAW double counting   =    112968.12702906  -116664.60339337
  entropy T*S    EENTRO =         0.00000000
  eigenvalues    EBANDS =    -10844.57663457
  atomic energy  EATOM  =    114020.06510763
  Solvation  Ediel_sol  =         0.00000000
  ---------------------------------------------------
  free energy    TOTEN  =      -326.80830447 eV

  energy without entropy =     -326.80830447  energy(sigma->0) =     -326.80830447


--------------------------------------------------------------------------------------------------------




--------------------------------------- Iteration      1(  12)  ---------------------------------------


    POTLOK:  cpu time    0.1206: real time    0.1215
    SETDIJ:  cpu time    0.0130: real time    0.0130
     EDDAV:  cpu time   90.1856: real time   90.8283
 BZINTS: Fermi energy:  5.154987;688.000000 electrons
         Band energy:***********;  BLOECHL correction:  0.000000
       DOS:  cpu time    0.0032: real time    0.0032
    CHARGE:  cpu time    1.2359: real time    1.2438
    MIXING:  cpu time    0.0015: real time    0.0015
    --------------------------------------------
      LOOP:  cpu time   91.5597: real time   92.2112

 eigenvalue-minimisations  : 14592
 total energy-change (2. order) : 0.6293290E-02  (-0.4864444E-01)
 number of electron     688.0000488 magnetization       0.0000000
 augmentation part      282.2748737 magnetization       0.0000000

 Broyden mixing:
  rms(total) = 0.13342E+00    rms(broyden)= 0.13341E+00
  rms(prec ) = 0.14889E+00
  weight for this iteration     100.00

 eigenvalues of (default mixing * dielectric matrix)
  average eigenvalue GAMMA=   0.9464
  2.2666  1.1036  1.1036  0.6220  0.6220  0.5738  0.3332

 Free energy of the ion-electron system (eV)
  ---------------------------------------------------
  alpha Z        PSCENC =      2367.15489865
  Ewald energy   TEWEN  =    -62620.23555418
  -Hartree energ DENC   =    -42839.44385317
  -exchange      EXHF   =         0.00000000
  -V(xc)+E(xc)   XCENC  =      3286.48465577
  PAW double counting   =    112578.61019841  -116271.91892440
  entropy T*S    EENTRO =         0.00000000
  eigenvalues    EBANDS =    -10847.51853989
  atomic energy  EATOM  =    114020.06510763
  Solvation  Ediel_sol  =         0.00000000
  ---------------------------------------------------
  free energy    TOTEN  =      -326.80201118 eV

  energy without entropy =     -326.80201118  energy(sigma->0) =     -326.80201118


--------------------------------------------------------------------------------------------------------




--------------------------------------- Iteration      1(  13)  ---------------------------------------


    POTLOK:  cpu time    0.1192: real time    0.1201
    SETDIJ:  cpu time    0.0127: real time    0.0128
     EDDAV:  cpu time  114.4259: real time  115.1994
 BZINTS: Fermi energy:  5.157217;688.000000 electrons
         Band energy:***********;  BLOECHL correction:  0.000000
       DOS:  cpu time    0.0032: real time    0.0032
    CHARGE:  cpu time    1.2362: real time    1.2441
    MIXING:  cpu time    0.0016: real time    0.0016
    --------------------------------------------
      LOOP:  cpu time  115.7987: real time  116.5812

 eigenvalue-minimisations  : 16384
 total energy-change (2. order) :-0.9646952E-02  (-0.5072192E-02)
 number of electron     688.0000488 magnetization      -0.0000000
 augmentation part      282.2864906 magnetization      -0.0000000

 Broyden mixing:
  rms(total) = 0.88875E-01    rms(broyden)= 0.88874E-01
  rms(prec ) = 0.92273E-01
  weight for this iteration     100.00

 eigenvalues of (default mixing * dielectric matrix)
  average eigenvalue GAMMA=   1.1320
  2.5646  2.5646  0.3332  0.8435  0.8435  0.6675  0.6675  0.5718

 Free energy of the ion-electron system (eV)
  ---------------------------------------------------
  alpha Z        PSCENC =      2367.15489865
  Ewald energy   TEWEN  =    -62620.23555418
  -Hartree energ DENC   =    -42845.14566406
  -exchange      EXHF   =         0.00000000
  -V(xc)+E(xc)   XCENC  =      3286.55023531
  PAW double counting   =    112333.95075690  -116027.04854759
  entropy T*S    EENTRO =         0.00000000
  eigenvalues    EBANDS =    -10842.10289079
  atomic energy  EATOM  =    114020.06510763
  Solvation  Ediel_sol  =         0.00000000
  ---------------------------------------------------
  free energy    TOTEN  =      -326.81165813 eV

  energy without entropy =     -326.81165813  energy(sigma->0) =     -326.81165813


--------------------------------------------------------------------------------------------------------




--------------------------------------- Iteration      1(  14)  ---------------------------------------


    POTLOK:  cpu time    0.1209: real time    0.1232
    SETDIJ:  cpu time    0.0127: real time    0.0128
     EDDAV:  cpu time  116.3990: real time  117.1795
 BZINTS: Fermi energy:  5.160227;688.000000 electrons
         Band energy:***********;  BLOECHL correction:  0.000000
       DOS:  cpu time    0.0031: real time    0.0031
    CHARGE:  cpu time    1.2369: real time    1.2443
    MIXING:  cpu time    0.0015: real time    0.0015
    --------------------------------------------
      LOOP:  cpu time  117.7742: real time  118.5644

 eigenvalue-minimisations  : 16640
 total energy-change (2. order) :-0.1368887E-01  (-0.8391737E-02)
 number of electron     688.0000488 magnetization       0.0000000
 augmentation part      282.2481129 magnetization       0.0000000

 Broyden mixing:
  rms(total) = 0.44785E-01    rms(broyden)= 0.44777E-01
  rms(prec ) = 0.50907E-01
  weight for this iteration     100.00

 eigenvalues of (default mixing * dielectric matrix)
  average eigenvalue GAMMA=   1.0598
  2.4148  2.4148  0.9400  0.9400  0.3331  0.6453  0.6453  0.5654  0.6395

 Free energy of the ion-electron system (eV)
  ---------------------------------------------------
  alpha Z        PSCENC =      2367.15489865
  Ewald energy   TEWEN  =    -62620.23555418
  -Hartree energ DENC   =    -42854.32944654
  -exchange      EXHF   =         0.00000000
  -V(xc)+E(xc)   XCENC  =      3286.38574766
  PAW double counting   =    112065.15734715  -115757.50893507
  entropy T*S    EENTRO =         0.00000000
  eigenvalues    EBANDS =    -10833.51451230
  atomic energy  EATOM  =    114020.06510763
  Solvation  Ediel_sol  =         0.00000000
  ---------------------------------------------------
  free energy    TOTEN  =      -326.82534700 eV

  energy without entropy =     -326.82534700  energy(sigma->0) =     -326.82534700


--------------------------------------------------------------------------------------------------------




--------------------------------------- Iteration      1(  15)  ---------------------------------------


    POTLOK:  cpu time    0.1183: real time    0.1224
    SETDIJ:  cpu time    0.0127: real time    0.0128
     EDDAV:  cpu time   72.6321: real time   73.1648
 BZINTS: Fermi energy:  5.159222;688.000000 electrons
         Band energy:***********;  BLOECHL correction:  0.000000
       DOS:  cpu time    0.0032: real time    0.0032
    CHARGE:  cpu time    1.2357: real time    1.2440
    MIXING:  cpu time    0.0017: real time    0.0017
    --------------------------------------------
      LOOP:  cpu time   74.0037: real time   74.5490

 eigenvalue-minimisations  : 12800
 total energy-change (2. order) : 0.1894661E-03  (-0.6488591E-03)
 number of electron     688.0000488 magnetization       0.0000000
 augmentation part      282.2449025 magnetization       0.0000000

 Broyden mixing:
  rms(total) = 0.20039E-01    rms(broyden)= 0.20039E-01
  rms(prec ) = 0.21463E-01
  weight for this iteration     100.00

 eigenvalues of (default mixing * dielectric matrix)
  average eigenvalue GAMMA=   1.0118
  2.3548  2.3548  0.9562  0.9562  0.3331  0.6501  0.6501  0.5730  0.6448  0.6448

 Free energy of the ion-electron system (eV)
  ---------------------------------------------------
  alpha Z        PSCENC =      2367.15489865
  Ewald energy   TEWEN  =    -62620.23555418
  -Hartree energ DENC   =    -42853.29064645
  -exchange      EXHF   =         0.00000000
  -V(xc)+E(xc)   XCENC  =      3286.36728525
  PAW double counting   =    112153.51922088  -115846.17509535
  entropy T*S    EENTRO =         0.00000000
  eigenvalues    EBANDS =    -10834.23037396
  atomic energy  EATOM  =    114020.06510763
  Solvation  Ediel_sol  =         0.00000000
  ---------------------------------------------------
  free energy    TOTEN  =      -326.82515754 eV

  energy without entropy =     -326.82515754  energy(sigma->0) =     -326.82515754


--------------------------------------------------------------------------------------------------------




--------------------------------------- Iteration      1(  16)  ---------------------------------------


    POTLOK:  cpu time    0.1186: real time    0.1195
    SETDIJ:  cpu time    0.0126: real time    0.0127
     EDDAV:  cpu time  139.9417: real time  140.8464
 BZINTS: Fermi energy:  5.159244;688.000000 electrons
         Band energy:***********;  BLOECHL correction:  0.000000
       DOS:  cpu time    0.0032: real time    0.0032
    CHARGE:  cpu time    1.2383: real time    1.2461
    MIXING:  cpu time    0.0033: real time    0.0040
    --------------------------------------------
      LOOP:  cpu time  141.3177: real time  142.2320

 eigenvalue-minimisations  : 17920
 total energy-change (2. order) :-0.3920368E-03  (-0.7979532E-04)
 number of electron     688.0000488 magnetization      -0.0000000
 augmentation part      282.2467182 magnetization      -0.0000000

 Broyden mixing:
  rms(total) = 0.13706E-01    rms(broyden)= 0.13706E-01
  rms(prec ) = 0.14457E-01
  weight for this iteration     100.00

 eigenvalues of (default mixing * dielectric matrix)
  average eigenvalue GAMMA=   1.1808
  2.9192  2.1940  2.1940  1.0945  0.3331  0.8591  0.8591  0.6712  0.6712  0.5677
  0.6251

 Free energy of the ion-electron system (eV)
  ---------------------------------------------------
  alpha Z        PSCENC =      2367.15489865
  Ewald energy   TEWEN  =    -62620.23555418
  -Hartree energ DENC   =    -42853.57157086
  -exchange      EXHF   =         0.00000000
  -V(xc)+E(xc)   XCENC  =      3286.39038504
  PAW double counting   =    112165.51423976  -115858.10304809
  entropy T*S    EENTRO =         0.00000000
  eigenvalues    EBANDS =    -10834.04000752
  atomic energy  EATOM  =    114020.06510763
  Solvation  Ediel_sol  =         0.00000000
  ---------------------------------------------------
  free energy    TOTEN  =      -326.82554957 eV

  energy without entropy =     -326.82554957  energy(sigma->0) =     -326.82554957


--------------------------------------------------------------------------------------------------------




--------------------------------------- Iteration      1(  17)  ---------------------------------------


    POTLOK:  cpu time    0.1261: real time    0.1270
    SETDIJ:  cpu time    0.0130: real time    0.0130
     EDDAV:  cpu time   87.8885: real time   88.5135
 BZINTS: Fermi energy:  5.159861;688.000000 electrons
         Band energy:***********;  BLOECHL correction:  0.000000
       DOS:  cpu time    0.0032: real time    0.0032
    CHARGE:  cpu time    1.2361: real time    1.2444
    MIXING:  cpu time    0.0019: real time    0.0019
    --------------------------------------------
      LOOP:  cpu time   89.2687: real time   89.9030

 eigenvalue-minimisations  : 14336
 total energy-change (2. order) :-0.9596154E-03  (-0.5579900E-03)
 number of electron     688.0000488 magnetization      -0.0000000
 augmentation part      282.2382195 magnetization      -0.0000000

 Broyden mixing:
  rms(total) = 0.81502E-02    rms(broyden)= 0.81483E-02
  rms(prec ) = 0.87170E-02
  weight for this iteration     100.00

 eigenvalues of (default mixing * dielectric matrix)
  average eigenvalue GAMMA=   1.1897
  3.6383  2.0702  2.0702  1.0640  0.9624  0.9624  0.3331  0.6523  0.6523  0.5762
  0.6473  0.6473

 Free energy of the ion-electron system (eV)
  ---------------------------------------------------
  alpha Z        PSCENC =      2367.15489865
  Ewald energy   TEWEN  =    -62620.23555418
  -Hartree energ DENC   =    -42855.55987568
  -exchange      EXHF   =         0.00000000
  -V(xc)+E(xc)   XCENC  =      3286.44797526
  PAW double counting   =    112156.35869106  -115848.65522391
  entropy T*S    EENTRO =         0.00000000
  eigenvalues    EBANDS =    -10832.40252802
  atomic energy  EATOM  =    114020.06510763
  Solvation  Ediel_sol  =         0.00000000
  ---------------------------------------------------
  free energy    TOTEN  =      -326.82650919 eV

  energy without entropy =     -326.82650919  energy(sigma->0) =     -326.82650919


--------------------------------------------------------------------------------------------------------




--------------------------------------- Iteration      1(  18)  ---------------------------------------


    POTLOK:  cpu time    0.1201: real time    0.1211
    SETDIJ:  cpu time    0.0128: real time    0.0128
     EDDAV:  cpu time   99.4126: real time  100.0951
 BZINTS: Fermi energy:  5.159733;688.000000 electrons
         Band energy:***********;  BLOECHL correction:  0.000000
       DOS:  cpu time    0.0032: real time    0.0032
    CHARGE:  cpu time    1.2338: real time    1.2422
    MIXING:  cpu time    0.0019: real time    0.0019
    --------------------------------------------
      LOOP:  cpu time  100.7843: real time  101.4764

 eigenvalue-minimisations  : 14848
 total energy-change (2. order) :-0.7506354E-04  (-0.2873383E-04)
 number of electron     688.0000488 magnetization      -0.0000000
 augmentation part      282.2453413 magnetization      -0.0000000

 Broyden mixing:
  rms(total) = 0.63498E-02    rms(broyden)= 0.63495E-02
  rms(prec ) = 0.75301E-02
  weight for this iteration     100.00

 eigenvalues of (default mixing * dielectric matrix)
  average eigenvalue GAMMA=   1.1605
  3.7436  2.1101  2.1101  1.0464  1.0464  0.3331  0.7152  0.7152  0.8004  0.6592
  0.6592  0.5738  0.5738

 Free energy of the ion-electron system (eV)
  ---------------------------------------------------
  alpha Z        PSCENC =      2367.15489865
  Ewald energy   TEWEN  =    -62620.23555418
  -Hartree energ DENC   =    -42855.35570896
  -exchange      EXHF   =         0.00000000
  -V(xc)+E(xc)   XCENC  =      3286.45169638
  PAW double counting   =    112162.16519946  -115854.46045803
  entropy T*S    EENTRO =         0.00000000
  eigenvalues    EBANDS =    -10832.61176519
  atomic energy  EATOM  =    114020.06510763
  Solvation  Ediel_sol  =         0.00000000
  ---------------------------------------------------
  free energy    TOTEN  =      -326.82658425 eV

  energy without entropy =     -326.82658425  energy(sigma->0) =     -326.82658425


--------------------------------------------------------------------------------------------------------




--------------------------------------- Iteration      1(  19)  ---------------------------------------


    POTLOK:  cpu time    0.1180: real time    0.1209
    SETDIJ:  cpu time    0.0127: real time    0.0127
     EDDAV:  cpu time  139.3448: real time  140.2534
 BZINTS: Fermi energy:  5.159535;688.000000 electrons
         Band energy:***********;  BLOECHL correction:  0.000000
       DOS:  cpu time    0.0032: real time    0.0032
    CHARGE:  cpu time    1.2358: real time    1.2433
    MIXING:  cpu time    0.0020: real time    0.0020
    --------------------------------------------
      LOOP:  cpu time  140.7164: real time  141.6355

 eigenvalue-minimisations  : 17920
 total energy-change (2. order) : 0.1985958E-05  (-0.7960391E-05)
 number of electron     688.0000488 magnetization       0.0000000
 augmentation part      282.2454111 magnetization       0.0000000

 Broyden mixing:
  rms(total) = 0.39118E-02    rms(broyden)= 0.39118E-02
  rms(prec ) = 0.43316E-02
  weight for this iteration     100.00

 eigenvalues of (default mixing * dielectric matrix)
  average eigenvalue GAMMA=   1.2465
  3.8659  2.3877  2.3877  1.3588  1.3588  0.9666  0.9666  0.3331  0.6678  0.6678
[...]
   -.417E+02 0.907E+00 0.337E+02   0.425E+02 -.870E+00 -.340E+02   -.834E+00 -.357E-01 0.326E+00   -.223E-03 -.716E-05 -.217E-04
   -.417E+02 0.907E+00 0.337E+02   0.425E+02 -.870E+00 -.340E+02   -.834E+00 -.357E-01 0.326E+00   -.223E-03 -.716E-05 -.217E-04
   -.417E+02 0.907E+00 0.337E+02   0.425E+02 -.870E+00 -.340E+02   -.834E+00 -.357E-01 0.326E+00   -.223E-03 -.716E-05 -.217E-04
   -.417E+02 0.907E+00 0.337E+02   0.425E+02 -.870E+00 -.340E+02   -.834E+00 -.357E-01 0.326E+00   -.223E-03 -.716E-05 -.217E-04
   0.417E+02 -.907E+00 0.337E+02   -.425E+02 0.870E+00 -.340E+02   0.834E+00 0.357E-01 0.326E+00   0.223E-03 0.716E-05 -.217E-04
   0.417E+02 -.907E+00 0.337E+02   -.425E+02 0.870E+00 -.340E+02   0.834E+00 0.357E-01 0.326E+00   0.223E-03 0.716E-05 -.217E-04
   0.417E+02 -.907E+00 0.337E+02   -.425E+02 0.870E+00 -.340E+02   0.834E+00 0.357E-01 0.326E+00   0.223E-03 0.716E-05 -.217E-04
   0.417E+02 -.907E+00 0.337E+02   -.425E+02 0.870E+00 -.340E+02   0.834E+00 0.357E-01 0.326E+00   0.223E-03 0.716E-05 -.217E-04
   0.907E+00 -.417E+02 0.337E+02   -.870E+00 0.425E+02 -.340E+02   -.357E-01 -.834E+00 0.326E+00   -.716E-05 -.223E-03 -.217E-04
   0.907E+00 -.417E+02 0.337E+02   -.870E+00 0.425E+02 -.340E+02   -.357E-01 -.834E+00 0.326E+00   -.716E-05 -.223E-03 -.217E-04
   0.907E+00 -.417E+02 0.337E+02   -.870E+00 0.425E+02 -.340E+02   -.357E-01 -.834E+00 0.326E+00   -.716E-05 -.223E-03 -.217E-04
   0.907E+00 -.417E+02 0.337E+02   -.870E+00 0.425E+02 -.340E+02   -.357E-01 -.834E+00 0.326E+00   -.716E-05 -.223E-03 -.217E-04
   -.907E+00 0.417E+02 0.337E+02   0.870E+00 -.425E+02 -.340E+02   0.357E-01 0.834E+00 0.326E+00   0.716E-05 0.223E-03 -.217E-04
   -.907E+00 0.417E+02 0.337E+02   0.870E+00 -.425E+02 -.340E+02   0.357E-01 0.834E+00 0.326E+00   0.716E-05 0.223E-03 -.217E-04
   -.907E+00 0.417E+02 0.337E+02   0.870E+00 -.425E+02 -.340E+02   0.357E-01 0.834E+00 0.326E+00   0.716E-05 0.223E-03 -.217E-04
   -.907E+00 0.417E+02 0.337E+02   0.870E+00 -.425E+02 -.340E+02   0.357E-01 0.834E+00 0.326E+00   0.716E-05 0.223E-03 -.217E-04
   -.163E-07 0.503E-07 -.395E+02   0.107E-12 -.178E-12 0.380E+02   -.132E-24 -.103E-24 0.159E+01   -.152E-12 0.606E-13 0.186E-03
   -.163E-07 0.503E-07 -.395E+02   0.790E-13 -.171E-12 0.380E+02   -.646E-25 0.103E-24 0.159E+01   -.215E-12 0.260E-12 0.186E-03
   -.163E-07 0.503E-07 -.395E+02   0.108E-12 -.192E-12 0.380E+02   0.364E-26 -.103E-24 0.159E+01   0.108E-12 -.161E-12 0.186E-03
   -.163E-07 0.503E-07 -.395E+02   0.648E-13 -.227E-12 0.380E+02   -.404E-26 0.103E-24 0.159E+01   -.381E-12 -.346E-12 0.186E-03
   0.503E-07 -.164E-07 -.395E+02   -.284E-13 -.114E-12 0.380E+02   -.226E-24 -.258E-25 0.159E+01   -.558E-12 0.237E-12 0.186E-03
   0.503E-07 -.163E-07 -.395E+02   -.568E-13 -.114E-12 0.380E+02   0.206E-24 -.194E-24 0.159E+01   0.239E-12 0.751E-13 0.186E-03
   0.503E-07 -.163E-07 -.395E+02   -.142E-13 -.156E-12 0.380E+02   -.771E-25 -.174E-24 0.159E+01   -.383E-12 -.177E-12 0.186E-03
   0.503E-07 -.163E-07 -.395E+02   -.568E-13 -.853E-13 0.380E+02   0.444E-26 0.110E-24 0.159E+01   0.985E-13 -.907E-13 0.186E-03
   -.163E-07 0.503E-07 -.395E+02   0.711E-13 -.302E-13 0.380E+02   0.148E-24 -.872E-25 0.159E+01   -.362E-12 -.837E-13 0.186E-03
   -.163E-07 0.504E-07 -.395E+02   0.711E-13 -.373E-13 0.380E+02   0.126E-24 -.103E-24 0.159E+01   0.476E-13 -.291E-12 0.186E-03
   -.163E-07 0.503E-07 -.395E+02   0.284E-13 -.684E-13 0.380E+02   0.118E-24 -.258E-25 0.159E+01   -.547E-12 -.143E-12 0.186E-03
   -.163E-07 0.503E-07 -.395E+02   0.853E-13 -.118E-12 0.380E+02   -.103E-24 0.517E-25 0.159E+01   0.999E-13 0.792E-13 0.186E-03
   0.503E-07 -.163E-07 -.395E+02   -.678E-13 0.323E-13 0.380E+02   0.105E-24 -.775E-25 0.159E+01   0.339E-13 -.165E-12 0.186E-03
   0.503E-07 -.164E-07 -.395E+02   -.653E-13 0.197E-13 0.380E+02   -.767E-25 -.517E-25 0.159E+01   -.280E-12 0.164E-13 0.186E-03
   0.503E-07 -.163E-07 -.395E+02   -.118E-12 0.729E-14 0.380E+02   -.115E-24 0.168E-24 0.159E+01   -.486E-13 0.166E-12 0.186E-03
   0.503E-07 -.163E-07 -.395E+02   -.867E-13 0.717E-14 0.380E+02   0.113E-24 0.258E-24 0.159E+01   -.183E-12 0.739E-13 0.186E-03
   -.378E-07 0.325E-07 -.320E+02   -.187E-13 0.924E-13 0.301E+02   0.302E-25 0.137E-24 0.187E+01   -.114E-12 0.105E-12 0.107E-03
   -.378E-07 0.325E-07 -.320E+02   -.329E-13 0.853E-13 0.301E+02   0.485E-25 0.129E-25 0.187E+01   -.194E-12 0.202E-12 0.107E-03
   -.378E-07 0.325E-07 -.320E+02   0.266E-14 0.156E-12 0.301E+02   -.194E-25 0.116E-24 0.187E+01   0.944E-13 -.555E-13 0.107E-03
   -.378E-07 0.324E-07 -.320E+02   0.169E-13 0.156E-12 0.301E+02   0.735E-25 -.129E-25 0.187E+01   -.354E-12 -.196E-12 0.107E-03
   0.325E-07 -.378E-07 -.320E+02   0.178E-13 0.639E-13 0.301E+02   -.153E-25 -.145E-24 0.187E+01   -.375E-12 0.179E-12 0.107E-03
   0.325E-07 -.378E-07 -.320E+02   0.355E-13 0.924E-13 0.301E+02   0.497E-25 -.129E-24 0.187E+01   0.568E-13 0.101E-12 0.107E-03
   0.325E-07 -.378E-07 -.320E+02   0.107E-13 0.121E-12 0.301E+02   -.929E-25 0.775E-25 0.187E+01   -.272E-12 -.221E-12 0.107E-03
   0.325E-07 -.378E-07 -.320E+02   0.000E+00 0.639E-13 0.301E+02   0.784E-25 0.905E-25 0.187E+01   -.586E-13 -.158E-12 0.107E-03
   -.378E-07 0.325E-07 -.320E+02   0.213E-13 0.702E-13 0.301E+02   0.921E-25 -.116E-24 0.187E+01   -.280E-12 0.904E-13 0.107E-03
   -.378E-07 0.325E-07 -.320E+02   0.213E-13 0.702E-13 0.301E+02   -.275E-25 0.258E-25 0.187E+01   -.427E-13 -.111E-12 0.107E-03
   -.378E-07 0.325E-07 -.320E+02   -.284E-13 0.110E-12 0.301E+02   0.315E-25 0.103E-24 0.187E+01   -.410E-12 -.593E-14 0.107E-03
   -.378E-07 0.325E-07 -.320E+02   0.142E-13 0.524E-13 0.301E+02   0.711E-25 0.517E-25 0.187E+01   0.986E-13 0.144E-12 0.107E-03
   0.325E-07 -.378E-07 -.320E+02   0.489E-13 -.380E-13 0.301E+02   0.868E-25 0.103E-24 0.187E+01   0.710E-13 -.128E-12 0.107E-03
   0.325E-07 -.378E-07 -.320E+02   0.226E-13 -.298E-14 0.301E+02   0.501E-25 -.517E-25 0.187E+01   -.364E-12 0.378E-13 0.107E-03
   0.325E-07 -.378E-07 -.320E+02   -.138E-14 -.543E-14 0.301E+02   -.323E-26 -.155E-24 0.187E+01   -.327E-13 0.469E-14 0.107E-03
   0.325E-07 -.378E-07 -.320E+02   0.150E-13 -.344E-13 0.301E+02   0.711E-25 -.517E-25 0.187E+01   -.252E-12 -.529E-13 0.107E-03
 -----------------------------------------------------------------------------------------------
   0.688E-06 0.688E-06 -.659E+02   -.251E-13 0.559E-13 -.952E-12   -.194E-15 0.111E-15 0.659E+02   -.437E-11 -.564E-12 0.399E-02
 
 
 POSITION                                       TOTAL-FORCE (eV/Angst)
 -----------------------------------------------------------------------------------
      1.39501      1.39069      1.24195         0.000584     -0.000849     -0.003742
      6.64037      1.67939      1.24195         0.000584     -0.000849     -0.003742
      1.68371      6.63605      1.24195         0.000584     -0.000849     -0.003742
      6.92908      6.92475      1.24195         0.000584     -0.000849     -0.003742
      4.13906      4.14338      1.24195        -0.000584      0.000849     -0.003742
      9.38442      4.43209      1.24195        -0.000584      0.000849     -0.003742
      4.42776      9.38874      1.24195        -0.000584      0.000849     -0.003742
      9.67313      9.67745      1.24195        -0.000584      0.000849     -0.003742
      1.52070      3.99471      9.07074         0.000849     -0.000584     -0.003742
      6.76606      4.28341      9.07074         0.000849     -0.000584     -0.003742
      1.80941      9.24007      9.07074         0.000849     -0.000584     -0.003742
      7.05477      9.52877      9.07074         0.000849     -0.000584     -0.003742
      4.01337      1.53936      9.07074        -0.000849      0.000584     -0.003742
      9.25873      1.82807      9.07074        -0.000849      0.000584     -0.003742
      4.30207      6.78472      9.07074        -0.000849      0.000584     -0.003742
      9.54743      7.07343      9.07074        -0.000849      0.000584     -0.003742
      1.37203      1.37635      6.46115        -0.000584      0.000849     -0.003742
      6.61739      1.66505      6.46115        -0.000584      0.000849     -0.003742
      1.66073      6.62171      6.46115        -0.000584      0.000849     -0.003742
      6.90609      6.91042      6.46115        -0.000584      0.000849     -0.003742
      4.16204      4.15772      6.46115         0.000584     -0.000849     -0.003742
      9.40740      4.44642      6.46115         0.000584     -0.000849     -0.003742
      4.45075      9.40308      6.46115         0.000584     -0.000849     -0.003742
      9.69611      9.69179      6.46115         0.000584     -0.000849     -0.003742
      3.99903      1.51638      3.85155         0.000849     -0.000584     -0.003742
      9.24439      1.80508      3.85155         0.000849     -0.000584     -0.003742
      4.28773      6.76174      3.85155         0.000849     -0.000584     -0.003742
      9.53310      7.05045      3.85155         0.000849     -0.000584     -0.003742
      1.53504      4.01769      3.85155        -0.000849      0.000584     -0.003742
      6.78040      4.30639      3.85155        -0.000849      0.000584     -0.003742
      1.82374      9.26305      3.85155        -0.000849      0.000584     -0.003742
      7.06911      9.55176      3.85155        -0.000849      0.000584     -0.003742
      0.00000      0.00000      5.27371         0.000000      0.000000      0.002693
      5.24536      0.28870      5.27371         0.000000      0.000000      0.002693
      0.28870      5.24536      5.27371         0.000000      0.000000      0.002693
      5.53407      5.53407      5.27371         0.000000      0.000000      0.002693
      2.62268      0.14435      2.66411         0.000000      0.000000      0.002693
      7.86804      0.43306      2.66411         0.000000      0.000000      0.002693
      2.91139      5.38971      2.66411         0.000000      0.000000      0.002693
      8.15675      5.67842      2.66411         0.000000      0.000000      0.002693
      2.76703      2.76703      0.05451         0.000000      0.000000      0.002693
      8.01240      3.05574      0.05451         0.000000      0.000000      0.002693
      3.05574      8.01240      0.05451         0.000000      0.000000      0.002693
      8.30110      8.30110      0.05451         0.000000      0.000000      0.002693
      0.14435      2.62268      7.88330         0.000000      0.000000      0.002693
      5.38971      2.91139      7.88330         0.000000      0.000000      0.002693
      0.43306      7.86804      7.88330         0.000000      0.000000      0.002693
      5.67842      8.15675      7.88330         0.000000      0.000000      0.002693
      0.00000      0.00000      0.07119         0.000000      0.000000      0.004790
      5.24536      0.28870      0.07119         0.000000      0.000000      0.004790
      0.28870      5.24536      0.07119         0.000000      0.000000      0.004790
      5.53407      5.53407      0.07119         0.000000      0.000000      0.004790
      2.62268      0.14435      7.89998         0.000000      0.000000      0.004790
      7.86804      0.43306      7.89998         0.000000      0.000000      0.004790
      2.91139      5.38971      7.89998         0.000000      0.000000      0.004790
      8.15675      5.67842      7.89998         0.000000      0.000000      0.004790
      2.76703      2.76703      5.29039         0.000000      0.000000      0.004790
      8.01240      3.05574      5.29039         0.000000      0.000000      0.004790
      3.05574      8.01240      5.29039         0.000000      0.000000      0.004790
      8.30110      8.30110      5.29039         0.000000      0.000000      0.004790
      0.14435      2.62268      2.68079         0.000000      0.000000      0.004790
      5.38971      2.91139      2.68079         0.000000      0.000000      0.004790
      0.43306      7.86804      2.68079         0.000000      0.000000      0.004790
      5.67842      8.15675      2.68079         0.000000      0.000000      0.004790
 -----------------------------------------------------------------------------------
    total drift:                                0.000001      0.000001      0.000762


--------------------------------------------------------------------------------------------------------



  FREE ENERGIE OF THE ION-ELECTRON SYSTEM (eV)
  ---------------------------------------------------
  free  energy   TOTEN  =      -326.82659054 eV

  energy  without entropy=     -326.82659054  energy(sigma->0) =     -326.82659054
 


--------------------------------------------------------------------------------------------------------


    POTLOK:  cpu time    0.1306: real time    0.1312


--------------------------------------------------------------------------------------------------------


 writing wavefunctions
     LOOP+:  cpu time 2826.5131: real time 2846.5103
    4ORBIT:  cpu time    0.0000: real time    0.0000
 


 total charge     
 
# of ion       s       p       d       tot
------------------------------------------
    1        1.315   2.406   0.000   3.721
    2        1.315   2.406   0.000   3.721
    3        1.315   2.406   0.000   3.721
    4        1.315   2.406   0.000   3.721
    5        1.315   2.406   0.000   3.721
    6        1.315   2.406   0.000   3.721
    7        1.315   2.406   0.000   3.721
    8        1.315   2.406   0.000   3.721
    9        1.315   2.407   0.000   3.721
   10        1.315   2.407   0.000   3.721
   11        1.315   2.407   0.000   3.721
   12        1.315   2.407   0.000   3.721
   13        1.315   2.407   0.000   3.721
   14        1.315   2.407   0.000   3.721
   15        1.315   2.407   0.000   3.721
   16        1.315   2.407   0.000   3.721
   17        1.315   2.406   0.000   3.721
   18        1.315   2.406   0.000   3.721
   19        1.315   2.406   0.000   3.721
   20        1.315   2.406   0.000   3.721
   21        1.315   2.406   0.000   3.721
   22        1.315   2.406   0.000   3.721
   23        1.315   2.406   0.000   3.721
   24        1.315   2.406   0.000   3.721
   25        1.315   2.407   0.000   3.721
   26        1.315   2.407   0.000   3.721
   27        1.315   2.407   0.000   3.721
   28        1.315   2.407   0.000   3.721
   29        1.315   2.407   0.000   3.721
   30        1.315   2.407   0.000   3.721
   31        1.315   2.407   0.000   3.721
   32        1.315   2.407   0.000   3.721
   33        0.258   6.201   8.916  15.375
   34        0.258   6.201   8.916  15.375
   35        0.258   6.201   8.916  15.375
   36        0.258   6.201   8.916  15.375
   37        0.258   6.201   8.917  15.376
   38        0.258   6.201   8.917  15.376
   39        0.258   6.201   8.917  15.376
   40        0.258   6.201   8.917  15.376
   41        0.258   6.201   8.916  15.375
   42        0.258   6.201   8.916  15.375
   43        0.258   6.201   8.916  15.375
   44        0.258   6.201   8.916  15.375
   45        0.258   6.201   8.917  15.376
   46        0.258   6.201   8.917  15.376
   47        0.258   6.201   8.917  15.376
   48        0.258   6.201   8.917  15.376
   49        0.347   6.346   5.822  12.516
   50        0.347   6.346   5.822  12.516
   51        0.347   6.346   5.822  12.516
   52        0.347   6.346   5.822  12.516
   53        0.347   6.346   5.823  12.516
   54        0.347   6.346   5.823  12.516
   55        0.347   6.346   5.823  12.516
   56        0.347   6.346   5.823  12.516
   57        0.347   6.346   5.822  12.516
   58        0.347   6.346   5.822  12.516
   59        0.347   6.346   5.822  12.516
   60        0.347   6.346   5.822  12.516
   61        0.347   6.346   5.823  12.516
   62        0.347   6.346   5.823  12.516
   63        0.347   6.346   5.823  12.516
   64        0.347   6.346   5.823  12.516
--------------------------------------------------
tot         51.760 277.759 235.822 565.341
 


 magnetization (x)
 
# of ion       s       p       d       tot
------------------------------------------
    1       -0.001  -0.027   0.000  -0.028
    2       -0.001  -0.027   0.000  -0.028
    3       -0.001  -0.027   0.000  -0.028
    4       -0.001  -0.027   0.000  -0.028
    5       -0.001  -0.027   0.000  -0.028
    6       -0.001  -0.027   0.000  -0.028
    7       -0.001  -0.027   0.000  -0.028
    8       -0.001  -0.027   0.000  -0.028
    9        0.001   0.027   0.000   0.028
   10        0.001   0.027   0.000   0.028
   11        0.001   0.027   0.000   0.028
   12        0.001   0.027   0.000   0.028
   13        0.001   0.027   0.000   0.028
   14        0.001   0.027   0.000   0.028
   15        0.001   0.027   0.000   0.028
   16        0.001   0.027   0.000   0.028
   17       -0.001  -0.027   0.000  -0.028
   18       -0.001  -0.027   0.000  -0.028
   19       -0.001  -0.027   0.000  -0.028
   20       -0.001  -0.027   0.000  -0.028
   21       -0.001  -0.027   0.000  -0.028
   22       -0.001  -0.027   0.000  -0.028
   23       -0.001  -0.027   0.000  -0.028
   24       -0.001  -0.027   0.000  -0.028
   25        0.001   0.027   0.000   0.028
   26        0.001   0.027   0.000   0.028
   27        0.001   0.027   0.000   0.028
   28        0.001   0.027   0.000   0.028
   29        0.001   0.027   0.000   0.028
   30        0.001   0.027   0.000   0.028
   31        0.001   0.027   0.000   0.028
   32        0.001   0.027   0.000   0.028
   33        0.000  -0.000   0.003   0.003
   34        0.000  -0.000   0.003   0.003
   35        0.000  -0.000   0.003   0.003
   36        0.000  -0.000   0.003   0.003
   37       -0.000   0.000  -0.004  -0.004
   38       -0.000   0.000  -0.004  -0.004
   39       -0.000   0.000  -0.004  -0.004
   40       -0.000   0.000  -0.004  -0.004
   41        0.000  -0.000   0.003   0.003
   42        0.000  -0.000   0.003   0.003
   43        0.000  -0.000   0.003   0.003
   44        0.000  -0.000   0.003   0.003
   45       -0.000   0.000  -0.004  -0.004
   46       -0.000   0.000  -0.004  -0.004
   47       -0.000   0.000  -0.004  -0.004
   48       -0.000   0.000  -0.004  -0.004
   49        0.020   0.053   3.668   3.741
   50        0.020   0.053   3.668   3.741
   51        0.020   0.053   3.668   3.741
   52        0.020   0.053   3.668   3.741
   53       -0.020  -0.053  -3.667  -3.740
   54       -0.020  -0.053  -3.667  -3.740
   55       -0.020  -0.053  -3.667  -3.740
   56       -0.020  -0.053  -3.667  -3.740
   57        0.020   0.053   3.668   3.741
   58        0.020   0.053   3.668   3.741
   59        0.020   0.053   3.668   3.741
   60        0.020   0.053   3.668   3.741
   61       -0.020  -0.053  -3.667  -3.740
   62       -0.020  -0.053  -3.667  -3.740
   63       -0.020  -0.053  -3.667  -3.740
   64       -0.020  -0.053  -3.667  -3.740
--------------------------------------------------
tot         -0.002   0.002  -0.002  -0.002
 
 BZINTS: Fermi energy:  5.159186;688.000000 electrons
         Band energy:***********;  BLOECHL correction:  0.000000

 total amount of memory used by VASP MPI-rank0   300225. kBytes
=======================================================================

   base      :      30000. kBytes
   nonl-proj :     174956. kBytes
   fftplans  :       4588. kBytes
   grid      :      69719. kBytes
   one-center:       1990. kBytes
   wavefun   :      18972. kBytes
 
  
  
 General timing and accounting informations for this job:
 ========================================================
  
                  Total CPU time used (sec):     2870.201
                            User time (sec):     2860.193
                          System time (sec):       10.007
                         Elapsed time (sec):     2891.503
  
                   Maximum memory used (kb):      663072.
                   Average memory used (kb):           0.
  
                          Minor page faults:       571355
                          Major page faults:         5803
                 Voluntary context switches:         7190
