       N       E                     dE             d eps       ncg     rms          rms(c)
DAV:   1     0.601057912619E+04    0.60106E+04   -0.51856E+05 16384   0.197E+03
DAV:   2    -0.115359761904E+03   -0.61259E+04   -0.60198E+04 17408   0.447E+02
DAV:   3    -0.368536463124E+03   -0.25318E+03   -0.25227E+03 23552   0.984E+01
DAV:   4    -0.371981378434E+03   -0.34449E+01   -0.34448E+01 18432   0.116E+01
DAV:   5    -0.372087348978E+03   -0.10597E+00   -0.10597E+00 22528   0.201E+00    0.514E+01
DAV:   6    -0.339049100171E+03    0.33038E+02   -0.40706E+01 25600   0.194E+01    0.294E+01
DAV:   7    -0.330437624582E+03    0.86115E+01   -0.32275E+01 23552   0.176E+01    0.271E+01
DAV:   8    -0.328410636327E+03    0.20270E+01   -0.22691E+01 22528   0.123E+01    0.104E+01
DAV:   9    -0.328106015968E+03    0.30462E+00   -0.89458E+00 21248   0.963E+00    0.704E+00
DAV:  10    -0.328004493901E+03    0.10152E+00   -0.36295E+00 23552   0.475E+00    0.371E+00
DAV:  11    -0.328021303885E+03   -0.16810E-01   -0.42129E-01 19968   0.157E+00    0.137E+00
DAV:  12    -0.328049125121E+03   -0.27821E-01   -0.11759E-01 27392   0.609E-01    0.691E-01
DAV:  13    -0.328055184421E+03   -0.60593E-02   -0.23722E-02 17920   0.346E-01    0.301E-01
DAV:  14    -0.328057686678E+03   -0.25023E-02   -0.61292E-03 23040   0.102E-01    0.193E-01
DAV:  15    -0.328059289454E+03   -0.16028E-02   -0.43614E-03 19456   0.774E-02    0.990E-02
DAV:  16    -0.328059906425E+03   -0.61697E-03   -0.20223E-03 25344   0.450E-02    0.647E-02
DAV:  17    -0.328060149801E+03   -0.24338E-03   -0.13303E-03 17408   0.376E-02    0.328E-02
DAV:  18    -0.328060192805E+03   -0.43004E-04   -0.30485E-04 22528   0.192E-02    0.175E-02
DAV:  19    -0.328060196439E+03   -0.36345E-05   -0.15022E-05 16896   0.628E-03    0.113E-02
DAV:  20    -0.328060198090E+03   -0.16512E-05   -0.90203E-06 24576   0.375E-03    0.491E-03
DAV:  21    -0.328060198673E+03   -0.58280E-06   -0.19181E-06 21504   0.194E-03    0.311E-03
DAV:  22    -0.328060198753E+03   -0.79439E-07   -0.23590E-07 27136   0.722E-04    0.178E-03
DAV:  23    -0.328060198796E+03   -0.43263E-07   -0.86780E-08 18944   0.393E-04    0.855E-04
DAV:  24    -0.328060198833E+03   -0.37035E-07   -0.93486E-08 17920   0.316E-04    0.423E-04
DAV:  25    -0.328060198848E+03   -0.14799E-07   -0.37542E-08 12800   0.204E-04    0.395E-04
DAV:  26    -0.328060198853E+03   -0.48167E-08   -0.35036E-09 16896   0.949E-05
   1 F= -.32806020E+03 E0= -.32806020E+03  d E =0.000000E+00  mag=     0.0000
