 vasp.5.4.4.18Apr17-6-g9f103f2a35 (build Oct 30 2023 17:30:16) complex          
  
 executed on             LinuxIFC date 2024.06.30  04:42:09
 running on  256 total cores
 distrk:  each k-point on  256 cores,    1 groups
 distr:  one band on NCORES_PER_BAND=   1 cores,  256 groups


--------------------------------------------------------------------------------------------------------


 INCAR:
 POTCAR:    PAW_PBE S 06Sep2000                   
 POTCAR:     PAW_PBE Cu_pv 06Sep2000              
 POTCAR:     PAW_PBE Fe_pv 02Aug2007              

 ----------------------------------------------------------------------------- 
|                                                                             |
|           W    W    AA    RRRRR   N    N  II  N    N   GGGG   !!!           |
|           W    W   A  A   R    R  NN   N  II  NN   N  G    G  !!!           |
|           W    W  A    A  R    R  N N  N  II  N N  N  G       !!!           |
|           W WW W  AAAAAA  RRRRR   N  N N  II  N  N N  G  GGG   !            |
|           WW  WW  A    A  R   R   N   NN  II  N   NN  G    G                |
|           W    W  A    A  R    R  N    N  II  N    N   GGGG   !!!           |
|                                                                             |
|      For optimal performance we recommend to set                            |
|        NCORE= 4 - approx SQRT( number of cores)                             |
|      NCORE specifies how many cores store one orbital (NPAR=cpu/NCORE).     |
|      This setting can  greatly improve the performance of VASP for DFT.     |
|      The default,   NCORE=1            might be grossly inefficient         |
|      on modern multi-core architectures or massively parallel machines.     |
|      Do your own testing !!!!                                               |
|      Unfortunately you need to use the default for GW and RPA calculations. |
|      (for HF NCORE is supported but not extensively tested yet)             |
|                                                                             |
 ----------------------------------------------------------------------------- 

 POTCAR:    PAW_PBE S 06Sep2000                   
   SHA256 =  0fc7481fb0695f01bdc6462160264c5c84044ae9ec85a907d398b887a2bc3132 S/
   COPYR  = (c) Copyright 06Sep2000 Georg Kresse                                
   COPYR  = This file is part of the software VASP. Any use, copying, and all ot
   COPYR  = If you do not have a valid VASP license, you may not use, copy or di
   VRHFIN =S : s2p4                                                             
   LEXCH  = PE                                                                  
   EATOM  =   276.8230 eV,   20.3459 Ry                                         
                                                                                
   TITEL  = PAW_PBE S 06Sep2000                                                 
   LULTRA =        F    use ultrasoft PP ?                                      
   IUNSCR =        1    unscreen: 0-lin 1-nonlin 2-no                           
   RPACOR =    1.500    partial core radius                                     
   POMASS =   32.066; ZVAL   =    6.000    mass and valenz                      
   RCORE  =    1.900    outmost cutoff radius                                   
   RWIGS  =    2.200; RWIGS  =    1.164    wigner-seitz radius (au A)           
   ENMAX  =  258.689; ENMIN  =  194.016 eV                                      
   ICORE  =        2    local potential                                         
   LCOR   =        T    correct aug charges                                     
   LPAW   =        T    paw PP                                                  
   EAUG   =  335.092                                                            
   DEXC   =    0.000                                                            
   RMAX   =    1.942    core radius for proj-oper                               
   RAUG   =    1.300    factor for augmentation sphere                          
   RDEP   =    1.954    radius for radial grids                                 
   RDEPT  =    1.744    core radius for aug-charge                              
                                                                                
   Atomic configuration                                                         
    6 entries                                                                   
     n  l   j            E        occ.                                          
     1  0  0.50     -2405.8406   2.0000                                         
     2  0  0.50      -211.7007   2.0000                                         
     2  1  1.50      -156.4958   6.0000                                         
     3  0  0.50       -17.2562   2.0000                                         
     3  1  0.50        -7.0085   4.0000                                         
     3  2  1.50        -6.8029   0.0000                                         
   Description                                                                  
     l       E           TYP  RCUT    TYP  RCUT                                 
     0    -17.2561641     23  1.900                                             
     0    -15.8743224     23  1.900                                             
     1     -7.0085400     23  1.900                                             
     1     -2.7779785     23  1.900                                             
     2     -6.8029130     23  1.900                                             
  local pseudopotential read in
  partial core-charges read in
  partial kinetic energy density read in
  atomic valenz-charges read in
  non local Contribution for L=           0  read in
    real space projection operators read in
  non local Contribution for L=           0  read in
    real space projection operators read in
  non local Contribution for L=           1  read in
    real space projection operators read in
  non local Contribution for L=           1  read in
    real space projection operators read in
    PAW grid and wavefunctions read in
 
   number of l-projection  operators is LMAX  =           4
   number of lm-projection operators is LMMAX =           8
 
 POTCAR:     PAW_PBE Cu_pv 06Sep2000              
   SHA256 =  cb7b504e2ea725fe1f25c85a9ac77d4012ce94cd394135b722c4e25ec297f1cb Cu
   COPYR  = (c) Copyright 06Sep2000 Georg Kresse                                
   COPYR  = This file is part of the software VASP. Any use, copying, and all ot
   COPYR  = If you do not have a valid VASP license, you may not use, copy or di
   VRHFIN =Cu: d10 p1                                                           
   LEXCH  = PE                                                                  
   EATOM  =  4120.1201 eV,  302.8203 Ry                                         
                                                                                
   TITEL  = PAW_PBE Cu_pv 06Sep2000                                             
   LULTRA =        F    use ultrasoft PP ?                                      
   IUNSCR =        1    unscreen: 0-lin 1-nonlin 2-no                           
   RPACOR =    1.500    partial core radius                                     
   POMASS =   63.546; ZVAL   =   17.000    mass and valenz                      
   RCORE  =    2.000    outmost cutoff radius                                   
   RWIGS  =    2.000; RWIGS  =    1.058    wigner-seitz radius (au A)           
   ENMAX  =  368.648; ENMIN  =  276.486 eV                                      
   RCLOC  =    1.304    cutoff for local pot                                    
   LCOR   =        T    correct aug charges                                     
   LPAW   =        T    paw PP                                                  
   EAUG   =  758.233                                                            
   DEXC   =    0.000                                                            
   RMAX   =    2.046    core radius for proj-oper                               
   RAUG   =    1.300    factor for augmentation sphere                          
   RDEP   =    2.025    radius for radial grids                                 
   RDEPT  =    1.558    core radius for aug-charge                              
                                                                                
   Atomic configuration                                                         
    8 entries                                                                   
     n  l   j            E        occ.                                          
     1  0  0.50     -8850.2467   2.0000                                         
     2  0  0.50     -1062.3498   2.0000                                         
     2  1  1.50      -916.8226   6.0000                                         
     3  0  0.50      -114.6929   2.0000                                         
     3  1  1.50       -72.1325   6.0000                                         
     3  2  2.50        -5.0394  10.0000                                         
     4  0  0.50        -4.6097   1.0000                                         
     4  3  2.50        -1.3606   0.0000                                         
   Description                                                                  
     l       E           TYP  RCUT    TYP  RCUT                                 
     1    -72.1324777     23  1.700                                             
     1     -1.3605826     23  1.700                                             
     2     -5.0393776     23  2.000                                             
     2     -6.3999602     23  2.000                                             
     0     -4.6097062     23  1.800                                             
     0     14.1620818     23  1.800                                             
  local pseudopotential read in
  partial core-charges read in
  partial kinetic energy density read in
  atomic valenz-charges read in
  non local Contribution for L=           1  read in
    real space projection operators read in
  non local Contribution for L=           1  read in
    real space projection operators read in
  non local Contribution for L=           2  read in
    real space projection operators read in
  non local Contribution for L=           2  read in
    real space projection operators read in
  non local Contribution for L=           0  read in
    real space projection operators read in
  non local Contribution for L=           0  read in
    real space projection operators read in
    PAW grid and wavefunctions read in
 
   number of l-projection  operators is LMAX  =           6
   number of lm-projection operators is LMMAX =          18
 
 POTCAR:     PAW_PBE Fe_pv 02Aug2007              
   SHA256 =  5d22e414b1f82158bf2c7ecb8b97b28fd0923e48cadc1c3bf74d524558f5dd32 Fe
   COPYR  = (c) Copyright 02Aug2007 Georg Kresse                                
   COPYR  = This file is part of the software VASP. Any use, copying, and all ot
   COPYR  = If you do not have a valid VASP license, you may not use, copy or di
   VRHFIN =Fe:  3pd7s1                                                          
   LEXCH  = PE                                                                  
   EATOM  =  2457.4239 eV,  180.6156 Ry                                         
                                                                                
   TITEL  = PAW_PBE Fe_pv 02Aug2007                                             
   LULTRA =        F    use ultrasoft PP ?                                      
   IUNSCR =        1    unscreen: 0-lin 1-nonlin 2-no                           
   RPACOR =    1.750    partial core radius                                     
   POMASS =   55.847; ZVAL   =   14.000    mass and valenz                      
   RCORE  =    2.200    outmost cutoff radius                                   
   RWIGS  =    2.200; RWIGS  =    1.164    wigner-seitz radius (au A)           
   ENMAX  =  293.238; ENMIN  =  219.928 eV                                      
   ICORE  =        3    local potential                                         
   LCOR   =        T    correct aug charges                                     
   LPAW   =        T    paw PP                                                  
   EAUG   =  578.342                                                            
   DEXC   =    0.000                                                            
   RMAX   =    2.249    core radius for proj-oper                               
   RAUG   =    1.300    factor for augmentation sphere                          
   RDEP   =    2.296    radius for radial grids                                 
   RDEPT  =    1.766    core radius for aug-charge                              
                                                                                
   Atomic configuration                                                         
    8 entries                                                                   
     n  l   j            E        occ.                                          
     1  0  0.50     -6993.8440   2.0000                                         
     2  0  0.50      -814.6047   2.0000                                         
     2  1  1.50      -693.3689   6.0000                                         
     3  0  0.50       -89.4732   2.0000                                         
     3  1  1.50       -55.6373   6.0000                                         
     3  2  2.50        -3.8151   7.0000                                         
     4  0  0.50        -4.2551   1.0000                                         
     4  3  2.50        -1.3606   0.0000                                         
   Description                                                                  
     l       E           TYP  RCUT    TYP  RCUT                                 
     1    -55.6372668     23  2.000                                             
     1     -5.4423304     23  2.000                                             
     2     -3.8151096     23  2.200                                             
     2     -5.1756922     23  2.200                                             
     0     -4.2550951     23  2.200                                             
     0     27.2116520     23  2.200                                             
     3     -1.3605826     23  2.200                                             
  local pseudopotential read in
  partial core-charges read in
  partial kinetic energy density read in
  atomic valenz-charges read in
  non local Contribution for L=           1  read in
    real space projection operators read in
  non local Contribution for L=           1  read in
    real space projection operators read in
  non local Contribution for L=           2  read in
    real space projection operators read in
  non local Contribution for L=           2  read in
    real space projection operators read in
  non local Contribution for L=           0  read in
    real space projection operators read in
  non local Contribution for L=           0  read in
    real space projection operators read in
    PAW grid and wavefunctions read in
 
   number of l-projection  operators is LMAX  =           6
   number of lm-projection operators is LMMAX =          18
 

 ----------------------------------------------------------------------------- 
|                                                                             |
|  ADVICE TO THIS USER RUNNING 'VASP/VAMP'   (HEAR YOUR MASTER'S VOICE ...):  |
|                                                                             |
|      You have a (more or less) 'large supercell' and for larger cells       |
|      it might be more efficient to use real space projection opertators     |
|      So try LREAL= Auto  in the INCAR   file.                               |
|      Mind:          For very  accurate calculation you might also keep the  |
|      reciprocal projection scheme          (i.e. LREAL=.FALSE.)             |
|                                                                             |
 ----------------------------------------------------------------------------- 


 ----------------------------------------------------------------------------- 
|                                                                             |
|  ADVICE TO THIS USER RUNNING 'VASP/VAMP'   (HEAR YOUR MASTER'S VOICE ...):  |
|                                                                             |
|      You enforced a specific xc-type in the INCAR file,                     |
|      a different type was found on the POTCAR file                          |
|          I HOPE YOU KNOW, WHAT YOU ARE  DOING                               |
|                                                                             |
 ----------------------------------------------------------------------------- 

  PAW_PBE S 06Sep2000                   :
 energy of atom  1       EATOM= -276.8230
 kinetic energy error for atom=    0.0007 (will be added to EATOM!!)
   PAW_PBE Cu_pv 06Sep2000              :
 energy of atom  2       EATOM=-4120.1201
 kinetic energy error for atom=    0.0094 (will be added to EATOM!!)
   PAW_PBE Fe_pv 02Aug2007              :
 energy of atom  3       EATOM=-2457.4239
 kinetic energy error for atom=    0.0025 (will be added to EATOM!!)
 
 
 POSCAR: Fe16 Cu16 S32                           
  positions in direct lattice
  No initial velocities read in
 exchange correlation table for  LEXCH =       14
   RHO(1)=    0.500       N(1)  =     2000
   RHO(2)=  100.500       N(2)  =     4000
 


--------------------------------------------------------------------------------------------------------


 ion  position               nearest neighbor table
   1  0.126  0.123  0.125-  41 2.26  37 2.26  61 2.27  49 2.28
   2  0.626  0.123  0.125-  42 2.26  38 2.26  62 2.27  50 2.28
   3  0.126  0.623  0.125-  43 2.26  39 2.26  63 2.27  51 2.28
   4  0.626  0.623  0.125-  44 2.26  40 2.26  64 2.27  52 2.28
   5  0.374  0.373  0.125-  39 2.26  41 2.26  52 2.27  62 2.28
   6  0.874  0.373  0.125-  40 2.26  42 2.26  51 2.27  61 2.28
   7  0.374  0.873  0.125-  37 2.26  43 2.26  50 2.27  64 2.28
   8  0.874  0.873  0.125-  38 2.26  44 2.26  49 2.27  63 2.28
   9  0.125  0.373  0.875-  41 2.26  45 2.26  51 2.27  55 2.27
  10  0.625  0.373  0.875-  42 2.26  46 2.26  52 2.27  56 2.27
  11  0.125  0.873  0.875-  43 2.26  47 2.26  49 2.27  53 2.27
  12  0.625  0.873  0.875-  44 2.26  48 2.26  50 2.27  54 2.27
  13  0.375  0.125  0.875-  41 2.26  46 2.26  50 2.28  53 2.28
  14  0.875  0.125  0.875-  42 2.26  45 2.26  49 2.28  54 2.28
  15  0.375  0.625  0.875-  43 2.26  48 2.26  52 2.28  55 2.28
  16  0.875  0.625  0.875-  44 2.26  47 2.26  51 2.28  56 2.28
  17  0.124  0.123  0.625-  45 2.26  33 2.26  57 2.27  53 2.28
  18  0.624  0.123  0.625-  46 2.26  34 2.26  58 2.27  54 2.28
  19  0.124  0.623  0.625-  47 2.26  35 2.26  59 2.27  55 2.28
  20  0.624  0.623  0.625-  48 2.26  36 2.26  60 2.27  56 2.28
  21  0.376  0.373  0.625-  36 2.26  46 2.26  55 2.27  57 2.28
  22  0.876  0.373  0.625-  35 2.26  45 2.26  56 2.27  58 2.28
  23  0.376  0.873  0.625-  34 2.26  48 2.26  53 2.27  59 2.28
  24  0.876  0.873  0.625-  33 2.26  47 2.26  54 2.27  60 2.28
  25  0.375  0.123  0.375-  34 2.26  37 2.26  57 2.27  62 2.27
  26  0.875  0.123  0.375-  33 2.26  38 2.26  58 2.27  61 2.27
  27  0.375  0.623  0.375-  36 2.26  39 2.26  59 2.27  64 2.27
  28  0.875  0.623  0.375-  35 2.26  40 2.26  60 2.27  63 2.27
  29  0.125  0.375  0.375-  35 2.26  39 2.26  57 2.28  61 2.28
  30  0.625  0.375  0.375-  36 2.26  40 2.26  58 2.28  62 2.28
  31  0.125  0.875  0.375-  33 2.26  37 2.26  59 2.28  63 2.28
  32  0.625  0.875  0.375-  34 2.26  38 2.26  60 2.28  64 2.28
  33  0.999  0.001  0.500-  24 2.26  31 2.26  26 2.26  17 2.26
  34  0.499  0.001  0.500-  23 2.26  32 2.26  25 2.26  18 2.26
  35  0.999  0.501  0.500-  22 2.26  29 2.26  28 2.26  19 2.26
  36  0.499  0.501  0.500-  21 2.26  30 2.26  27 2.26  20 2.26
  37  0.251  0.001  0.250-   7 2.26  31 2.26  25 2.26   1 2.26
  38  0.751  0.001  0.250-   8 2.26  32 2.26  26 2.26   2 2.26
  39  0.251  0.501  0.250-   5 2.26  29 2.26  27 2.26   3 2.26
  40  0.751  0.501  0.250-   6 2.26  30 2.26  28 2.26   4 2.26
  41  0.249  0.251  0.000-   1 2.26  13 2.26   9 2.26   5 2.26
  42  0.749  0.251  0.000-   2 2.26  14 2.26  10 2.26   6 2.26
  43  0.249  0.751  0.000-   3 2.26  15 2.26  11 2.26   7 2.26
  44  0.749  0.751  0.000-   4 2.26  16 2.26  12 2.26   8 2.26
  45  0.001  0.251  0.750-  17 2.26  14 2.26   9 2.26  22 2.26
  46  0.501  0.251  0.750-  18 2.26  13 2.26  10 2.26  21 2.26
  47  0.001  0.751  0.750-  19 2.26  16 2.26  11 2.26  24 2.26
  48  0.501  0.751  0.750-  20 2.26  15 2.26  12 2.26  23 2.26
  49  1.000  0.001  0.000-   8 2.27  11 2.27  14 2.28   1 2.28
  50  0.500  0.001  0.000-   7 2.27  12 2.27  13 2.28   2 2.28
  51  1.000  0.501  0.000-   6 2.27   9 2.27  16 2.28   3 2.28
  52  0.500  0.501  0.000-   5 2.27  10 2.27  15 2.28   4 2.28
  53  0.250  0.001  0.750-  23 2.27  11 2.27  13 2.28  17 2.28
  54  0.750  0.001  0.750-  24 2.27  12 2.27  14 2.28  18 2.28
  55  0.250  0.501  0.750-  21 2.27   9 2.27  15 2.28  19 2.28
  56  0.750  0.501  0.750-  22 2.27  10 2.27  16 2.28  20 2.28
  57  0.250  0.251  0.500-  17 2.27  25 2.27  29 2.28  21 2.28
  58  0.750  0.251  0.500-  18 2.27  26 2.27  30 2.28  22 2.28
  59  0.250  0.751  0.500-  19 2.27  27 2.27  31 2.28  23 2.28
  60  0.750  0.751  0.500-  20 2.27  28 2.27  32 2.28  24 2.28
  61  0.000  0.251  0.250-   1 2.27  26 2.27  29 2.28   6 2.28
  62  0.500  0.251  0.250-   2 2.27  25 2.27  30 2.28   5 2.28
  63  0.000  0.751  0.250-   3 2.27  28 2.27  31 2.28   8 2.28
  64  0.500  0.751  0.250-   4 2.27  27 2.27  32 2.28   7 2.28
 
  LATTYP: Found a simple monoclinic cell.
 ALAT       =    14.9728045192
 B/A-ratio  =     0.7025291078
 C/A-ratio  =     1.5726966532
 COS(beta)  =    -0.9506591519
  
  Lattice vectors:
  
 A1 = ( -10.6391240000,   0.0000000000, -10.5353650000)
 A2 = (   0.0000000000, -10.5188310000,   0.0000000000)
 A3 = (  10.7662370000,   0.0000000000,  20.9423340000)


Analysis of symmetry for initial positions (statically):
=====================================================================
 Subroutine PRICEL returns following result:
 
  LATTYP: Found a base centered monoclinic cell.
 ALAT       =    11.5446286313
 B/A-ratio  =     0.4555725150
 C/A-ratio  =     0.9015227424
 COS(beta)  =    -0.8102782121
  
  Lattice vectors:
  
 A1 = (  -2.5644462500,  -2.6297077500,   5.1713855000)
 A2 = (  -2.5644462500,   2.6297077500,   5.1713855000)
 A3 = (  -0.1271130000,   0.0000000000, -10.4069690000)
 
   8 primitive cells build up your supercell.
 

 Routine SETGRP: Setting up the symmetry group for a 
 simple monoclinic supercell.


 Subroutine GETGRP returns: Found  2 space group operations
 (whereof  1 operations were pure point group operations)
 out of a pool of  4 trial point group operations.


The static configuration has the point symmetry C_1 .
 The point group associated with its full space group is C_2 .


Analysis of symmetry for dynamics (positions and initial velocities):
=====================================================================
 Subroutine PRICEL returns following result:
 
  LATTYP: Found a base centered monoclinic cell.
 ALAT       =    11.5446286313
 B/A-ratio  =     0.4555725150
 C/A-ratio  =     0.9015227424
 COS(beta)  =    -0.8102782121
  
  Lattice vectors:
  
 A1 = (  -2.5644462500,  -2.6297077500,   5.1713855000)
 A2 = (  -2.5644462500,   2.6297077500,   5.1713855000)
 A3 = (  -0.1271130000,   0.0000000000, -10.4069690000)
 
   8 primitive cells build up your supercell.
 

 Routine SETGRP: Setting up the symmetry group for a 
 simple monoclinic supercell.


 Subroutine GETGRP returns: Found  2 space group operations
 (whereof  1 operations were pure point group operations)
 out of a pool of  4 trial point group operations.


The dynamic configuration has the point symmetry C_1 .
 The point group associated with its full space group is C_2 .


Analysis of structural, dynamic, and magnetic symmetry:
=====================================================================
 Subroutine PRICEL returns following result:
 
  LATTYP: Found a base centered monoclinic cell.
 ALAT       =    11.5446286313
 B/A-ratio  =     0.4555725150
 C/A-ratio  =     0.9015227424
 COS(beta)  =    -0.8102782121
  
  Lattice vectors:
  
 A1 = (  -2.5644462500,  -2.6297077500,   5.1713855000)
 A2 = (  -2.5644462500,   2.6297077500,   5.1713855000)
 A3 = (  -0.1271130000,   0.0000000000, -10.4069690000)
 
   8 primitive cells build up your supercell.
 

 Routine SETGRP: Setting up the symmetry group for a 
 simple monoclinic supercell.


 Subroutine GETGRP returns: Found  2 space group operations
 (whereof  1 operations were pure point group operations)
 out of a pool of  4 trial point group operations.


The magnetic configuration has the point symmetry C_1 .
 The point group associated with its full space group is C_2 .


 Subroutine INISYM returns: Found  2 space group operations
 (whereof  1 operations are pure point group operations),
 and found     8 'primitive' translations

 
 
 KPOINTS: Automatic mesh                          

Automatic generation of k-mesh.
Space group operators:
 irot       det(A)        alpha          n_x          n_y          n_z        tau_x        tau_y        tau_z
    1     1.000000     0.000001     1.000000     0.000000     0.000000     0.000000     0.000000     0.000000
    2     1.000000   180.000000     0.000000     1.000000     0.000000    -0.250000     0.000000    -0.250000
 
 Subroutine IBZKPT returns following result:
 ===========================================
 
 Found      8 irreducible k-points:
 
 Following reciprocal coordinates:
            Coordinates               Weight
  0.000000  0.000000  0.000000      1.000000
  0.500000  0.000000  0.000000      1.000000
  0.000000  0.500000  0.000000      1.000000
  0.500000  0.500000  0.000000      1.000000
  0.000000  0.000000  0.500000      1.000000
  0.500000  0.000000  0.500000      1.000000
  0.000000  0.500000  0.500000      1.000000
  0.500000  0.500000  0.500000      1.000000
 
 Following cartesian coordinates:
            Coordinates               Weight
  0.000000  0.000000  0.000000      1.000000
  0.047572  0.000000 -0.000581      1.000000
  0.000000  0.047534  0.000000      1.000000
  0.047572  0.047534 -0.000581      1.000000
 -0.000587  0.000000  0.048052      1.000000
  0.046985  0.000000  0.047471      1.000000
 -0.000587  0.047534  0.048052      1.000000
  0.046985  0.047534  0.047471      1.000000
 
 TETIRR: Found     24 inequivalent tetrahedra from       48
 
 Subroutine IBZKPT_HF returns following result:
 ==============================================
 
 Found      8 k-points in 1st BZ
 the following      8 k-points will be used (e.g. in the exchange kernel)
 Following reciprocal coordinates:   # in IRBZ
  0.000000  0.000000  0.000000    0.12500000   1 t-inv F
  0.500000  0.000000  0.000000    0.12500000   2 t-inv F
  0.000000  0.500000  0.000000    0.12500000   3 t-inv F
  0.500000  0.500000  0.000000    0.12500000   4 t-inv F
  0.000000  0.000000  0.500000    0.12500000   5 t-inv F
  0.500000  0.000000  0.500000    0.12500000   6 t-inv F
  0.000000  0.500000  0.500000    0.12500000   7 t-inv F
  0.500000  0.500000  0.500000    0.12500000   8 t-inv F


--------------------------------------------------------------------------------------------------------




 Dimension of arrays:
   k-points           NKPTS =      8   k-points in BZ     NKDIM =      8   number of bands    NBANDS=    512
   number of dos      NEDOS =    301   number of ions     NIONS =     64
   non local maximal  LDIM  =      6   non local SUM 2l+1 LMDIM =     18
   total plane-waves  NPLWV = 829440
   max r-space proj   IRMAX =      1   max aug-charges    IRDMAX=  22909
   dimension x,y,z NGX =    96 NGY =   96 NGZ =   90
   dimension x,y,z NGXF=   192 NGYF=  192 NGZF=  180
   support grid    NGXF=   192 NGYF=  192 NGZF=  180
   ions per type =              32  16  16
   NGX,Y,Z   is equivalent  to a cutoff of  15.18, 15.17, 14.38 a.u.
   NGXF,Y,Z  is equivalent  to a cutoff of  30.36, 30.34, 28.75 a.u.

 SYSTEM =  CuFeS2                                  
 POSCAR =  Fe16 Cu16 S32                           

 Startparameter for this run:
   NWRITE =      2    write-flag & timer
   PREC   = accura    normal or accurate (medium, high low for compatibility)
   ISTART =      0    job   : 0-new  1-cont  2-samecut
   ICHARG =      1    charge: 1-file 2-atom 10-const
   ISPIN  =      2    spin polarized calculation?
   LNONCOLLINEAR =      F non collinear calculations
   LSORBIT =      F    spin-orbit coupling
   INIWAV =      1    electr: 0-lowe 1-rand  2-diag
   LASPH  =      F    aspherical Exc in radial PAW
   METAGGA=      F    non-selfconsistent MetaGGA calc.

 Electronic Relaxation 1
   ENCUT  =  700.0 eV  51.45 Ry    7.17 a.u.  22.68 22.69 22.45*2*pi/ulx,y,z
   ENINI  =  700.0     initial cutoff
   ENAUG  =  758.2 eV  augmentation charge cutoff
   NELM   =    500;   NELMIN=  2; NELMDL=  0     # of ELM steps 
   EDIFF  = 0.1E-07   stopping-criterion for ELM
   LREAL  =      F    real-space projection
   NLSPLINE    = F    spline interpolate recip. space projectors
   LCOMPAT=      F    compatible to vasp.4.4
   GGA_COMPAT  = T    GGA compatible to vasp.4.4-vasp.4.6
   LMAXPAW     = -100 max onsite density
   LMAXMIX     =    4 max onsite mixed and CHGCAR
   VOSKOWN=      0    Vosko Wilk Nusair interpolation
   ROPT   =    0.00000   0.00000   0.00000
 Ionic relaxation
   EDIFFG = -.1E-04   stopping-criterion for IOM
   NSW    =      0    number of steps for IOM
   NBLOCK =      1;   KBLOCK =      1    inner block; outer block 
   IBRION =     -1    ionic relax: 0-MD 1-quasi-New 2-CG
   NFREE  =      0    steps in history (QN), initial steepest desc. (CG)
   ISIF   =      2    stress and relaxation
   IWAVPR =     10    prediction:  0-non 1-charg 2-wave 3-comb
   ISYM   =      2    0-nonsym 1-usesym 2-fastsym
   LCORR  =      T    Harris-Foulkes like correction to forces

   POTIM  = 0.5000    time-step for ionic-motion
   TEIN   =    0.0    initial temperature
   TEBEG  =    0.0;   TEEND  =   0.0 temperature during run
   SMASS  =  -3.00    Nose mass-parameter (am)
   estimated Nose-frequenzy (Omega)   =  0.10E-29 period in steps =****** mass=  -0.253E-26a.u.
   SCALEE = 1.0000    scale energy and forces
   NPACO  =    256;   APACO  = 16.0  distance and # of slots for P.C.
   PSTRESS=    0.0 pullay stress

  Mass of Ions in am
   POMASS =  32.07 63.55 55.85
  Ionic Valenz
   ZVAL   =   6.00 17.00 14.00
  Atomic Wigner-Seitz radii
   RWIGS  =  -1.00 -1.00 -1.00
  virtual crystal weights 
   VCA    =   1.00  1.00  1.00
   NELECT =     688.0000    total number of electrons
   NUPDOWN=      -1.0000    fix difference up-down

 DOS related values:
   EMIN   =  10.00;   EMAX   =-10.00  energy-range for DOS
   EFERMI =   0.00
   ISMEAR =    -5;   SIGMA  =   0.03  broadening in eV -4-tet -1-fermi 0-gaus

 Electronic relaxation 2 (details)
   IALGO  =     38    algorithm
   LDIAG  =      T    sub-space diagonalisation (order eigenvalues)
   LSUBROT=      F    optimize rotation matrix (better conditioning)
   TURBO    =      0    0=normal 1=particle mesh
   IRESTART =      0    0=no restart 2=restart with 2 vectors
   NREBOOT  =      0    no. of reboots
   NMIN     =      0    reboot dimension
   EREF     =   0.00    reference energy to select bands
   IMIX   =      4    mixing-type and parameters
     AMIX     =   0.40;   BMIX     =  1.00
     AMIX_MAG =   1.60;   BMIX_MAG =  1.00
     AMIN     =   0.10
     WC   =   100.;   INIMIX=   1;  MIXPRE=   1;  MAXMIX= -45

 Intra band minimization:
   WEIMIN = 0.0000     energy-eigenvalue tresh-hold
   EBREAK =  0.49E-11  absolut break condition
   DEPER  =   0.30     relativ break condition  

   TIME   =   0.40     timestep for ELM

  volume/ion in A,a.u.               =      17.98       121.32
  Fermi-wavevector in a.u.,A,eV,Ry     =   1.379220  2.606347 25.881635  1.902246
  Thomas-Fermi vector in A             =   2.504209
 
 Write flags
   LWAVE        =      T    write WAVECAR
   LDOWNSAMPLE  =      F    k-point downsampling of WAVECAR
   LCHARG       =      T    write CHGCAR
   LVTOT        =      F    write LOCPOT, total local potential
   LVHAR        =      F    write LOCPOT, Hartree potential only
   LELF         =      F    write electronic localiz. function (ELF)
   LORBIT       =     11    0 simple, 1 ext, 2 COOP (PROOUT), +10 PAW based schemes


 Dipole corrections
   LMONO  =      F    monopole corrections only (constant potential shift)
   LDIPOL =      F    correct potential (dipole corrections)
   IDIPOL =      0    1-x, 2-y, 3-z, 4-all directions 
   EPSILON=  1.0000000 bulk dielectric constant

 LDA+U is selected, type is set to LDAUTYPE =  2
   angular momentum for each species LDAUL =     2    2    2
   U (eV)           for each species LDAUU =   0.0  0.1  4.7
   J (eV)           for each species LDAUJ =   0.0  0.0  0.0
 Exchange correlation treatment:
   GGA     =    PS    GGA type
   LEXCH   =    14    internal setting for exchange type
   VOSKOWN=      0    Vosko Wilk Nusair interpolation
   LHFCALC =     F    Hartree Fock is set to
   LHFONE  =     F    Hartree Fock one center treatment
   AEXX    =    0.0000 exact exchange contribution

 Linear response parameters
   LEPSILON=     F    determine dielectric tensor
   LRPA    =     F    only Hartree local field effects (RPA)
   LNABLA  =     F    use nabla operator in PAW spheres
   LVEL    =     F    velocity operator in full k-point grid
   LINTERFAST=   F  fast interpolation
   KINTER  =     0    interpolate to denser k-point grid
   CSHIFT  =0.1000    complex shift for real part using Kramers Kronig
   OMEGAMAX=  -1.0    maximum frequency
   DEG_THRESHOLD= 0.2000000E-02 threshold for treating states as degnerate
   RTIME   =   -0.100 relaxation time in fs
  (WPLASMAI=    0.000 imaginary part of plasma frequency in eV, 0.658/RTIME)
   DFIELD  = 0.0000000 0.0000000 0.0000000 field for delta impulse in time
 
 Orbital magnetization related:
   ORBITALMAG=     F  switch on orbital magnetization
   LCHIMAG   =     F  perturbation theory with respect to B field
   DQ        =  0.001000  dq finite difference perturbation B field
   LLRAUG    =     F  two centre corrections for induced B field

 PEAD related settings:
   LPEAD      =     T    switch on PEAD
   IPEAD      =     4    finite difference order for dpsi/dk
   LCALCPOL   =     T    calculate macroscopic polarization
   LCALCEPS   =     F    calculate dielectric tensor
   EFIELD_PEAD=    0.0000    0.0000    0.0000
   SKIP_EDOTP =     F
   LRPA       =     F
   SKIP_SCF   =     F


--------------------------------------------------------------------------------------------------------


 Static calculation
 charge density and potential will be updated during run
 spin polarized calculation
 Variant of blocked Davidson
 Davidson routine will perform the subspace rotation
 perform sub-space diagonalisation
    after iterative eigenvector-optimisation
 modified Broyden-mixing scheme, WC =      100.0
 initial mixing is a Kerker type mixing with AMIX =  0.4000 and BMIX =      1.0000
 Hartree-type preconditioning will be used
 using additional bands          168
 reciprocal scheme for non local part
 use partial core corrections
 calculate Harris-corrections to forces 
   (improved forces if not selfconsistent)
 use gradient corrections 
 use of overlap-Matrix (Vanderbilt PP)
 Fermi weights with tetrahedron method with Bloechl corrections


--------------------------------------------------------------------------------------------------------


  energy-cutoff  :      700.00
  volume of cell :     1150.57
      direct lattice vectors                 reciprocal lattice vectors
    10.512011000  0.000000000  0.128396000     0.095143471  0.000000000 -0.001162103
     0.000000000 10.518831000  0.000000000     0.000000000  0.095067598  0.000000000
     0.127113000  0.000000000 10.406969000    -0.001173833  0.000000000  0.096103794

  length of vectors
    10.512795099 10.518831000 10.407745264     0.095150567  0.095067598  0.096110963


 
 k-points in units of 2pi/SCALE and weight: Automatic mesh                          
   0.00000000  0.00000000  0.00000000       0.125
   0.04757174  0.00000000 -0.00058105       0.125
   0.00000000  0.04753380  0.00000000       0.125
   0.04757174  0.04753380 -0.00058105       0.125
  -0.00058692  0.00000000  0.04805190       0.125
   0.04698482  0.00000000  0.04747085       0.125
  -0.00058692  0.04753380  0.04805190       0.125
   0.04698482  0.04753380  0.04747085       0.125
 
 k-points in reciprocal lattice and weights: Automatic mesh                          
   0.00000000  0.00000000  0.00000000       0.125
   0.50000000  0.00000000  0.00000000       0.125
   0.00000000  0.50000000  0.00000000       0.125
   0.50000000  0.50000000  0.00000000       0.125
   0.00000000  0.00000000  0.50000000       0.125
   0.50000000  0.00000000  0.50000000       0.125
   0.00000000  0.50000000  0.50000000       0.125
   0.50000000  0.50000000  0.50000000       0.125
 
 position of ions in fractional coordinates (direct lattice) 
   0.12622600  0.12343200  0.12523200
   0.62622600  0.12343200  0.12523200
   0.12622600  0.62343200  0.12523200
   0.62622600  0.62343200  0.12523200
   0.37377400  0.37343200  0.12476800
   0.87377400  0.37343200  0.12476800
   0.37377400  0.87343200  0.12476800
   0.87377400  0.87343200  0.12476800
   0.12500000  0.37294400  0.87500000
   0.62500000  0.37294400  0.87500000
   0.12500000  0.87294400  0.87500000
   0.62500000  0.87294400  0.87500000
   0.37500000  0.12507300  0.87500000
   0.87500000  0.12507300  0.87500000
   0.37500000  0.62507300  0.87500000
   0.87500000  0.62507300  0.87500000
   0.12377400  0.12343200  0.62476800
   0.62377400  0.12343200  0.62476800
   0.12377400  0.62343200  0.62476800
   0.62377400  0.62343200  0.62476800
   0.37622600  0.37343200  0.62523200
   0.87622600  0.37343200  0.62523200
   0.37622600  0.87343200  0.62523200
   0.87622600  0.87343200  0.62523200
   0.37500000  0.12294400  0.37500000
   0.87500000  0.12294400  0.37500000
   0.37500000  0.62294400  0.37500000
   0.87500000  0.62294400  0.37500000
   0.12500000  0.37507300  0.37500000
   0.62500000  0.37507300  0.37500000
   0.12500000  0.87507300  0.37500000
   0.62500000  0.87507300  0.37500000
   0.99943200  0.00129800  0.50000200
   0.49943200  0.00129800  0.50000200
   0.99943200  0.50129800  0.50000200
   0.49943200  0.50129800  0.50000200
   0.25056800  0.00129800  0.24999800
   0.75056800  0.00129800  0.24999800
   0.25056800  0.50129800  0.24999800
   0.75056800  0.50129800  0.24999800
   0.24943200  0.25129800  0.00000200
   0.74943200  0.25129800  0.00000200
   0.24943200  0.75129800  0.00000200
   0.74943200  0.75129800  0.00000200
   0.00056800  0.25129800  0.74999800
   0.50056800  0.25129800  0.74999800
   0.00056800  0.75129800  0.74999800
   0.50056800  0.75129800  0.74999800
   0.99967000  0.00126200  0.00018700
   0.49967000  0.00126200  0.00018700
   0.99967000  0.50126200  0.00018700
   0.49967000  0.50126200  0.00018700
   0.25033000  0.00126200  0.74981300
   0.75033000  0.00126200  0.74981300
   0.25033000  0.50126200  0.74981300
   0.75033000  0.50126200  0.74981300
   0.24967000  0.25126200  0.50018700
   0.74967000  0.25126200  0.50018700
   0.24967000  0.75126200  0.50018700
   0.74967000  0.75126200  0.50018700
   0.00033000  0.25126200  0.24981300
   0.50033000  0.25126200  0.24981300
   0.00033000  0.75126200  0.24981300
   0.50033000  0.75126200  0.24981300
 
 position of ions in cartesian coordinates  (Angst):
   1.34280772  1.29836035  1.31949246
   6.59881322  1.29836035  1.38369046
   1.34280772  6.55777585  1.31949246
   6.59881322  6.55777585  1.38369046
   3.94497603  3.92806810  1.34644779
   9.20098153  3.92806810  1.41064579
   3.94497603  9.18748360  1.34644779
   9.20098153  9.18748360  1.41064579
   1.42522525  3.92293491  9.12214737
   6.68123075  3.92293491  9.18634538
   1.42522525  9.18235041  9.12214737
   6.68123075  9.18235041  9.18634538
   4.05322800  1.31562175  9.15424637
   9.30923350  1.31562175  9.21844437
   4.05322800  6.57503725  9.15424637
   9.30923350  6.57503725  9.21844437
   1.38052978  1.29836035  6.51783329
   6.63653528  1.29836035  6.58203129
   1.38052978  6.55777585  6.51783329
   6.63653528  6.55777585  6.58203129
   4.03436697  3.92806810  6.55507596
   9.29037247  3.92806810  6.61927396
   4.03436697  9.18748360  6.55507596
   9.29037247  9.18748360  6.61927396
   3.98967150  1.29322716  3.95076187
   9.24567700  1.29322716  4.01495987
   3.98967150  6.55264266  3.95076187
   9.24567700  6.55264266  4.01495987
   1.36166875  3.94532950  3.91866287
   6.61767425  3.94532950  3.98286088
   1.36166875  9.20474500  3.91866287
   6.61767425  9.20474500  3.98286088
  10.56959693  0.01365344  5.33182839
   5.31359143  0.01365344  5.26763039
  10.56959693  5.27306894  5.33182839
   5.31359143  5.27306894  5.26763039
   2.66575157  0.01365344  2.63389336
   7.92175707  0.01365344  2.69809136
   2.66575157  5.27306894  2.63389336
   7.92175707  5.27306894  2.69809136
   2.62203218  2.64336119  0.03204689
   7.87803768  2.64336119  0.09624489
   2.62203218  7.90277669  0.03204689
   7.87803768  7.90277669  0.09624489
   0.10130532  2.64336119  7.80527886
   5.35731082  2.64336119  7.86947686
   0.10130532  7.90277669  7.80527886
   5.35731082  7.90277669  7.86947686
  10.50856581  0.01327476  0.13029973
   5.25256031  0.01327476  0.06610173
  10.50856581  5.27269026  0.13029973
   5.25256031  5.27269026  0.06610173
   2.72678269  0.01327476  7.83542202
   7.98278819  0.01327476  7.89962002
   2.72678269  5.27269026  7.83542202
   7.98278819  5.27269026  7.89962002
   2.68811406  2.64298251  5.23748723
   7.94411956  2.64298251  5.30168523
   2.68811406  7.90239801  5.23748723
   7.94411956  7.90239801  5.30168523
   0.03522344  2.64298251  2.59983852
   5.29122894  2.64298251  2.66403652
   0.03522344  7.90239801  2.59983852
   5.29122894  7.90239801  2.66403652
 


--------------------------------------------------------------------------------------------------------


 k-point  1 :   0.0000 0.0000 0.0000  plane waves:   48387
 k-point  2 :   0.5000 0.0000 0.0000  plane waves:   48390
 k-point  3 :   0.0000 0.5000 0.0000  plane waves:   48430
 k-point  4 :   0.5000 0.5000 0.0000  plane waves:   48416
 k-point  5 :   0.0000 0.0000 0.5000  plane waves:   48392
 k-point  6 :   0.5000 0.0000 0.5000  plane waves:   48440
 k-point  7 :   0.0000 0.5000 0.5000  plane waves:   48356
 k-point  8 :   0.5000 0.5000 0.5000  plane waves:   48340

 maximum and minimum number of plane-waves per node :     48440    48340

 maximum number of plane-waves:     48440
 maximum index in each direction: 
   IXMAX=   22   IYMAX=   22   IZMAX=   22
   IXMIN=  -23   IYMIN=  -23   IZMIN=  -22


 serial   3D FFT for wavefunctions
 parallel 3D FFT for charge:
    minimum data exchange during FFTs selected (reduces bandwidth)


 total amount of memory used by VASP MPI-rank0   349631. kBytes
=======================================================================

   base      :      30000. kBytes
   nonl-proj :     217907. kBytes
   fftplans  :       4588. kBytes
   grid      :      69719. kBytes
   one-center:       1990. kBytes
   wavefun   :      25427. kBytes
 
     INWAV:  cpu time    0.0001: real time    0.0002
 Broyden mixing: mesh for mixing (old mesh)
   NGX = 45   NGY = 45   NGZ = 45
  (NGX  =192   NGY  =192   NGZ  =180)
  gives a total of  91125 points

 initial charge density was supplied:
 number of electron     687.9999924 magnetization       0.0000000
 keeping initial charge density in first step


--------------------------------------------------------------------------------------------------------


 Maximum index for augmentation-charges          896 (set IRDMAX)


--------------------------------------------------------------------------------------------------------


 First call to EWALD:  gamma=   0.169
 Maximum number of real-space cells 3x 3x 3
 Maximum number of reciprocal cells 3x 3x 3

    FEWALD:  cpu time    0.0027: real time    0.0031


--------------------------------------- Iteration      1(   1)  ---------------------------------------


    POTLOK:  cpu time    0.3305: real time    0.3734
    SETDIJ:  cpu time    0.0150: real time    0.0150
     EDDAV:  cpu time   84.7197: real time   85.4182
 BZINTS: Fermi energy: 14.693102;688.000000 electrons
         Band energy:***********;  BLOECHL correction: -0.013819
       DOS:  cpu time    0.0394: real time    0.0396
    --------------------------------------------
      LOOP:  cpu time   85.1046: real time   85.8463

 eigenvalue-minimisations  : 16384
 total energy-change (2. order) : 0.6010579E+04  (-0.5185642E+05)
 number of electron     687.9999924 magnetization       0.0000000
 augmentation part      687.9999924 magnetization       0.0000000

 Free energy of the ion-electron system (eV)
  ---------------------------------------------------
  alpha Z        PSCENC =      2356.35589139
  Ewald energy   TEWEN  =    -62471.61403159
  -Hartree energ DENC   =    -42757.53818425
  -exchange      EXHF   =         0.00000000
  -V(xc)+E(xc)   XCENC  =      3281.58534899
  PAW double counting   =    112137.10810081  -115828.64214528
  entropy T*S    EENTRO =         0.00000000
  eigenvalues    EBANDS =     -4726.74096149
  atomic energy  EATOM  =    114020.06510763
  Solvation  Ediel_sol  =         0.00000000
  ---------------------------------------------------
  free energy    TOTEN  =      6010.57912619 eV

  energy without entropy =     6010.57912619  energy(sigma->0) =     6010.57912619


--------------------------------------------------------------------------------------------------------




--------------------------------------- Iteration      1(   2)  ---------------------------------------


     EDDAV:  cpu time   94.1163: real time   94.8480
 BZINTS: Fermi energy:  5.225717;688.000000 electrons
         Band energy:***********;  BLOECHL correction: -0.041791
       DOS:  cpu time    0.0355: real time    0.0356
    --------------------------------------------
      LOOP:  cpu time   94.1517: real time   94.8836

 eigenvalue-minimisations  : 17408
 total energy-change (2. order) :-0.6125939E+04  (-0.6019754E+04)
 number of electron     687.9999924 magnetization       0.0000000
 augmentation part      687.9999924 magnetization       0.0000000

 Free energy of the ion-electron system (eV)
  ---------------------------------------------------
  alpha Z        PSCENC =      2356.35589139
  Ewald energy   TEWEN  =    -62471.61403159
  -Hartree energ DENC   =    -42757.53818425
  -exchange      EXHF   =         0.00000000
  -V(xc)+E(xc)   XCENC  =      3281.58534899
  PAW double counting   =    112137.10810081  -115828.64214528
  entropy T*S    EENTRO =         0.00000000
  eigenvalues    EBANDS =    -10852.67984959
  atomic energy  EATOM  =    114020.06510763
  Solvation  Ediel_sol  =         0.00000000
  ---------------------------------------------------
  free energy    TOTEN  =      -115.35976190 eV

  energy without entropy =     -115.35976190  energy(sigma->0) =     -115.35976190


--------------------------------------------------------------------------------------------------------




--------------------------------------- Iteration      1(   3)  ---------------------------------------


     EDDAV:  cpu time  169.1643: real time  170.3288
 BZINTS: Fermi energy:  4.850273;688.000000 electrons
         Band energy:***********;  BLOECHL correction:  0.000000
       DOS:  cpu time    0.0078: real time    0.0078
    --------------------------------------------
      LOOP:  cpu time  169.1720: real time  170.3366

 eigenvalue-minimisations  : 23552
 total energy-change (2. order) :-0.2531767E+03  (-0.2522732E+03)
 number of electron     687.9999924 magnetization       0.0000000
 augmentation part      687.9999924 magnetization       0.0000000

 Free energy of the ion-electron system (eV)
  ---------------------------------------------------
  alpha Z        PSCENC =      2356.35589139
  Ewald energy   TEWEN  =    -62471.61403159
  -Hartree energ DENC   =    -42757.53818425
  -exchange      EXHF   =         0.00000000
  -V(xc)+E(xc)   XCENC  =      3281.58534899
  PAW double counting   =    112137.10810081  -115828.64214528
  entropy T*S    EENTRO =         0.00000000
  eigenvalues    EBANDS =    -11105.85655081
  atomic energy  EATOM  =    114020.06510763
  Solvation  Ediel_sol  =         0.00000000
  ---------------------------------------------------
  free energy    TOTEN  =      -368.53646312 eV

  energy without entropy =     -368.53646312  energy(sigma->0) =     -368.53646312


--------------------------------------------------------------------------------------------------------




--------------------------------------- Iteration      1(   4)  ---------------------------------------


     EDDAV:  cpu time  111.3101: real time  112.1293
 BZINTS: Fermi energy:  4.857122;688.000000 electrons
         Band energy:***********;  BLOECHL correction:  0.000000
       DOS:  cpu time    0.0059: real time    0.0060
    --------------------------------------------
      LOOP:  cpu time  111.3160: real time  112.1353

 eigenvalue-minimisations  : 18432
 total energy-change (2. order) :-0.3444915E+01  (-0.3444768E+01)
 number of electron     687.9999924 magnetization       0.0000000
 augmentation part      687.9999924 magnetization       0.0000000

 Free energy of the ion-electron system (eV)
  ---------------------------------------------------
  alpha Z        PSCENC =      2356.35589139
  Ewald energy   TEWEN  =    -62471.61403159
  -Hartree energ DENC   =    -42757.53818425
  -exchange      EXHF   =         0.00000000
  -V(xc)+E(xc)   XCENC  =      3281.58534899
  PAW double counting   =    112137.10810081  -115828.64214528
  entropy T*S    EENTRO =         0.00000000
  eigenvalues    EBANDS =    -11109.30146612
  atomic energy  EATOM  =    114020.06510763
  Solvation  Ediel_sol  =         0.00000000
  ---------------------------------------------------
  free energy    TOTEN  =      -371.98137843 eV

  energy without entropy =     -371.98137843  energy(sigma->0) =     -371.98137843


--------------------------------------------------------------------------------------------------------




--------------------------------------- Iteration      1(   5)  ---------------------------------------


     EDDAV:  cpu time  159.1578: real time  160.2641
 BZINTS: Fermi energy:  4.772119;688.000000 electrons
         Band energy:***********;  BLOECHL correction:  0.000000
       DOS:  cpu time    0.0059: real time    0.0059
    CHARGE:  cpu time    1.4025: real time    1.4123
    MIXING:  cpu time    0.0048: real time    0.0049
    --------------------------------------------
      LOOP:  cpu time  160.5711: real time  161.6873

 eigenvalue-minimisations  : 22528
 total energy-change (2. order) :-0.1059705E+00  (-0.1059700E+00)
 number of electron     688.0000381 magnetization       0.0000000
 augmentation part      285.2167127 magnetization       0.0000000

 Broyden mixing:
  rms(total) = 0.51361E+01    rms(broyden)= 0.51354E+01
  rms(prec ) = 0.57726E+01
  weight for this iteration     100.00

 Free energy of the ion-electron system (eV)
  ---------------------------------------------------
  alpha Z        PSCENC =      2356.35589139
  Ewald energy   TEWEN  =    -62471.61403159
  -Hartree energ DENC   =    -42757.53818425
  -exchange      EXHF   =         0.00000000
  -V(xc)+E(xc)   XCENC  =      3281.58534899
  PAW double counting   =    112137.10810081  -115828.64214528
  entropy T*S    EENTRO =         0.00000000
  eigenvalues    EBANDS =    -11109.40743666
  atomic energy  EATOM  =    114020.06510763
  Solvation  Ediel_sol  =         0.00000000
  ---------------------------------------------------
  free energy    TOTEN  =      -372.08734898 eV

  energy without entropy =     -372.08734898  energy(sigma->0) =     -372.08734898


--------------------------------------------------------------------------------------------------------




--------------------------------------- Iteration      1(   6)  ---------------------------------------


    POTLOK:  cpu time    0.1416: real time    0.1425
    SETDIJ:  cpu time    0.0132: real time    0.0133
     EDDAV:  cpu time  180.0088: real time  181.2510
 BZINTS: Fermi energy:  4.968399;688.000000 electrons
         Band energy:***********;  BLOECHL correction:  0.000000
       DOS:  cpu time    0.0060: real time    0.0060
    CHARGE:  cpu time    1.3996: real time    1.4099
    MIXING:  cpu time    0.0029: real time    0.0098
    --------------------------------------------
      LOOP:  cpu time  181.5722: real time  182.8326

 eigenvalue-minimisations  : 25600
 total energy-change (2. order) : 0.3303825E+02  (-0.4070566E+01)
 number of electron     688.0000377 magnetization       0.0000000
 augmentation part      280.2815395 magnetization       0.0000000

 Broyden mixing:
  rms(total) = 0.29360E+01    rms(broyden)= 0.29360E+01
  rms(prec ) = 0.32910E+01
  weight for this iteration     100.00

 eigenvalues of (default mixing * dielectric matrix)
  average eigenvalue GAMMA=   0.7509
  0.7509

 Free energy of the ion-electron system (eV)
  ---------------------------------------------------
  alpha Z        PSCENC =      2356.35589139
  Ewald energy   TEWEN  =    -62471.61403159
  -Hartree energ DENC   =    -43027.49959398
  -exchange      EXHF   =         0.00000000
  -V(xc)+E(xc)   XCENC  =      3287.30415755
  PAW double counting   =    115580.00228679  -119307.02160706
  entropy T*S    EENTRO =         0.00000000
  eigenvalues    EBANDS =    -10776.64131089
  atomic energy  EATOM  =    114020.06510763
  Solvation  Ediel_sol  =         0.00000000
  ---------------------------------------------------
  free energy    TOTEN  =      -339.04910017 eV

  energy without entropy =     -339.04910017  energy(sigma->0) =     -339.04910017


--------------------------------------------------------------------------------------------------------




--------------------------------------- Iteration      1(   7)  ---------------------------------------


    POTLOK:  cpu time    0.1407: real time    0.1428
    SETDIJ:  cpu time    0.0134: real time    0.0135
     EDDAV:  cpu time  168.1428: real time  169.3023
 BZINTS: Fermi energy:  4.987115;688.000000 electrons
         Band energy:***********;  BLOECHL correction:  0.000000
       DOS:  cpu time    0.0066: real time    0.0067
    CHARGE:  cpu time    1.4036: real time    1.4141
    MIXING:  cpu time    0.0021: real time    0.0040
    --------------------------------------------
      LOOP:  cpu time  169.7091: real time  170.8832

 eigenvalue-minimisations  : 23552
 total energy-change (2. order) : 0.8611476E+01  (-0.3227502E+01)
 number of electron     688.0000380 magnetization       0.0000000
 augmentation part      283.3602501 magnetization       0.0000000

 Broyden mixing:
  rms(total) = 0.27119E+01    rms(broyden)= 0.27119E+01
  rms(prec ) = 0.29217E+01
  weight for this iteration     100.00

 eigenvalues of (default mixing * dielectric matrix)
  average eigenvalue GAMMA=   0.8453
  1.2498  0.4407

 Free energy of the ion-electron system (eV)
  ---------------------------------------------------
  alpha Z        PSCENC =      2356.35589139
  Ewald energy   TEWEN  =    -62471.61403159
  -Hartree energ DENC   =    -42896.96450583
  -exchange      EXHF   =         0.00000000
  -V(xc)+E(xc)   XCENC  =      3286.57921630
  PAW double counting   =    114928.60788849  -118614.55397563
  entropy T*S    EENTRO =         0.00000000
  eigenvalues    EBANDS =    -10938.91321533
  atomic energy  EATOM  =    114020.06510763
  Solvation  Ediel_sol  =         0.00000000
  ---------------------------------------------------
  free energy    TOTEN  =      -330.43762458 eV

  energy without entropy =     -330.43762458  energy(sigma->0) =     -330.43762458


--------------------------------------------------------------------------------------------------------




--------------------------------------- Iteration      1(   8)  ---------------------------------------


    POTLOK:  cpu time    0.1412: real time    0.1421
    SETDIJ:  cpu time    0.0131: real time    0.0132
     EDDAV:  cpu time  156.1875: real time  157.2776
 BZINTS: Fermi energy:  4.711044;688.000000 electrons
         Band energy:***********;  BLOECHL correction:  0.000000
       DOS:  cpu time    0.0057: real time    0.0058
    CHARGE:  cpu time    1.5766: real time    1.5874
    MIXING:  cpu time    0.0019: real time    0.0020
    --------------------------------------------
      LOOP:  cpu time  157.9260: real time  159.0280

 eigenvalue-minimisations  : 22528
 total energy-change (2. order) : 0.2026988E+01  (-0.2269125E+01)
 number of electron     688.0000381 magnetization       0.0000000
 augmentation part      283.1110407 magnetization       0.0000000

 Broyden mixing:
  rms(total) = 0.10436E+01    rms(broyden)= 0.10435E+01
  rms(prec ) = 0.11714E+01
  weight for this iteration     100.00

 eigenvalues of (default mixing * dielectric matrix)
  average eigenvalue GAMMA=   0.9924
  1.8498  0.6989  0.4285

 Free energy of the ion-electron system (eV)
  ---------------------------------------------------
  alpha Z        PSCENC =      2356.35589139
  Ewald energy   TEWEN  =    -62471.61403159
  -Hartree energ DENC   =    -42876.92457005
  -exchange      EXHF   =         0.00000000
  -V(xc)+E(xc)   XCENC  =      3284.28914745
  PAW double counting   =    114148.20856533  -117836.59019717
  entropy T*S    EENTRO =         0.00000000
  eigenvalues    EBANDS =    -10952.20054931
  atomic energy  EATOM  =    114020.06510763
  Solvation  Ediel_sol  =         0.00000000
  ---------------------------------------------------
  free energy    TOTEN  =      -328.41063633 eV

  energy without entropy =     -328.41063633  energy(sigma->0) =     -328.41063633


--------------------------------------------------------------------------------------------------------




--------------------------------------- Iteration      1(   9)  ---------------------------------------


    POTLOK:  cpu time    0.1410: real time    0.1421
    SETDIJ:  cpu time    0.0130: real time    0.0130
     EDDAV:  cpu time  145.2385: real time  146.2520
 BZINTS: Fermi energy:  5.030867;688.000000 electrons
         Band energy:***********;  BLOECHL correction:  0.000000
       DOS:  cpu time    0.0065: real time    0.0065
    CHARGE:  cpu time    1.4101: real time    1.4205
    MIXING:  cpu time    0.0028: real time    0.0028
    --------------------------------------------
      LOOP:  cpu time  146.8119: real time  147.8370

 eigenvalue-minimisations  : 21248
 total energy-change (2. order) : 0.3046204E+00  (-0.8945792E+00)
 number of electron     688.0000379 magnetization       0.0000000
 augmentation part      282.1731841 magnetization       0.0000000

 Broyden mixing:
  rms(total) = 0.70352E+00    rms(broyden)= 0.70350E+00
  rms(prec ) = 0.81181E+00
  weight for this iteration     100.00

 eigenvalues of (default mixing * dielectric matrix)
  average eigenvalue GAMMA=   0.9060
  1.8830  0.7978  0.5838  0.3593

 Free energy of the ion-electron system (eV)
  ---------------------------------------------------
  alpha Z        PSCENC =      2356.35589139
  Ewald energy   TEWEN  =    -62471.61403159
  -Hartree energ DENC   =    -42974.48314482
  -exchange      EXHF   =         0.00000000
  -V(xc)+E(xc)   XCENC  =      3287.64913888
  PAW double counting   =    113665.81156870  -117364.39612062
  entropy T*S    EENTRO =         0.00000000
  eigenvalues    EBANDS =    -10847.49442553
  atomic energy  EATOM  =    114020.06510763
  Solvation  Ediel_sol  =         0.00000000
  ---------------------------------------------------
  free energy    TOTEN  =      -328.10601597 eV

  energy without entropy =     -328.10601597  energy(sigma->0) =     -328.10601597


--------------------------------------------------------------------------------------------------------




--------------------------------------- Iteration      1(  10)  ---------------------------------------


    POTLOK:  cpu time    0.1484: real time    0.1493
    SETDIJ:  cpu time    0.0132: real time    0.0133
     EDDAV:  cpu time  170.4370: real time  171.6092
 BZINTS: Fermi energy:  4.983056;688.000000 electrons
         Band energy:***********;  BLOECHL correction:  0.000000
       DOS:  cpu time    0.0066: real time    0.0066
    CHARGE:  cpu time    1.4007: real time    1.4108
    MIXING:  cpu time    0.0019: real time    0.0019
    --------------------------------------------
      LOOP:  cpu time  172.0078: real time  173.1911

 eigenvalue-minimisations  : 23552
 total energy-change (2. order) : 0.1015221E+00  (-0.3629491E+00)
 number of electron     688.0000380 magnetization       0.0000000
 augmentation part      281.9927593 magnetization       0.0000000

 Broyden mixing:
  rms(total) = 0.37096E+00    rms(broyden)= 0.37094E+00
  rms(prec ) = 0.41811E+00
  weight for this iteration     100.00

 eigenvalues of (default mixing * dielectric matrix)
  average eigenvalue GAMMA=   1.0111
  1.7633  1.7633  0.6407  0.5651  0.3231

 Free energy of the ion-electron system (eV)
  ---------------------------------------------------
  alpha Z        PSCENC =      2356.35589139
  Ewald energy   TEWEN  =    -62471.61403159
  -Hartree energ DENC   =    -42955.74919583
  -exchange      EXHF   =         0.00000000
  -V(xc)+E(xc)   XCENC  =      3286.43990048
  PAW double counting   =    113268.18362136  -116964.19043386
  entropy T*S    EENTRO =         0.00000000
  eigenvalues    EBANDS =    -10867.49535348
  atomic energy  EATOM  =    114020.06510763
  Solvation  Ediel_sol  =         0.00000000
  ---------------------------------------------------
  free energy    TOTEN  =      -328.00449390 eV

  energy without entropy =     -328.00449390  energy(sigma->0) =     -328.00449390


--------------------------------------------------------------------------------------------------------




--------------------------------------- Iteration      1(  11)  ---------------------------------------


    POTLOK:  cpu time    0.1416: real time    0.1425
    SETDIJ:  cpu time    0.0131: real time    0.0132
     EDDAV:  cpu time  124.8675: real time  125.7744
 BZINTS: Fermi energy:  4.983788;688.000000 electrons
         Band energy:***********;  BLOECHL correction:  0.000000
       DOS:  cpu time    0.0066: real time    0.0066
    CHARGE:  cpu time    1.4015: real time    1.4117
    MIXING:  cpu time    0.0022: real time    0.0037
    --------------------------------------------
      LOOP:  cpu time  126.4326: real time  127.3522

 eigenvalue-minimisations  : 19968
 total energy-change (2. order) :-0.1680998E-01  (-0.4212949E-01)
 number of electron     688.0000380 magnetization       0.0000000
 augmentation part      282.2622784 magnetization       0.0000000

 Broyden mixing:
  rms(total) = 0.13717E+00    rms(broyden)= 0.13716E+00
  rms(prec ) = 0.14289E+00
  weight for this iteration     100.00

 eigenvalues of (default mixing * dielectric matrix)
  average eigenvalue GAMMA=   1.1062
  2.1128  2.1128  0.8225  0.6304  0.6304  0.3284

 Free energy of the ion-electron system (eV)
  ---------------------------------------------------
  alpha Z        PSCENC =      2356.35589139
  Ewald energy   TEWEN  =    -62471.61403159
  -Hartree energ DENC   =    -42945.96323072
  -exchange      EXHF   =         0.00000000
  -V(xc)+E(xc)   XCENC  =      3286.41418569
  PAW double counting   =    112692.11810318  -116385.22852408
  entropy T*S    EENTRO =         0.00000000
  eigenvalues    EBANDS =    -10880.16880538
  atomic energy  EATOM  =    114020.06510763
  Solvation  Ediel_sol  =         0.00000000
  ---------------------------------------------------
  free energy    TOTEN  =      -328.02130389 eV

  energy without entropy =     -328.02130389  energy(sigma->0) =     -328.02130389


--------------------------------------------------------------------------------------------------------




--------------------------------------- Iteration      1(  12)  ---------------------------------------


    POTLOK:  cpu time    0.1401: real time    0.1411
    SETDIJ:  cpu time    0.0130: real time    0.0130
     EDDAV:  cpu time  210.4574: real time  211.8764
 BZINTS: Fermi energy:  4.987482;688.000000 electrons
         Band energy:***********;  BLOECHL correction:  0.000000
       DOS:  cpu time    0.0066: real time    0.0066
    CHARGE:  cpu time    1.4081: real time    1.4172
    MIXING:  cpu time    0.0021: real time    0.0021
    --------------------------------------------
      LOOP:  cpu time  212.0272: real time  213.4564

 eigenvalue-minimisations  : 27392
 total energy-change (2. order) :-0.2782124E-01  (-0.1175855E-01)
 number of electron     688.0000380 magnetization      -0.0000000
 augmentation part      282.2066114 magnetization      -0.0000000

 Broyden mixing:
  rms(total) = 0.69073E-01    rms(broyden)= 0.69069E-01
  rms(prec ) = 0.76667E-01
  weight for this iteration     100.00

 eigenvalues of (default mixing * dielectric matrix)
  average eigenvalue GAMMA=   1.1269
  2.2726  2.2726  1.0713  0.6916  0.6252  0.6252  0.3295

 Free energy of the ion-electron system (eV)
  ---------------------------------------------------
  alpha Z        PSCENC =      2356.35589139
  Ewald energy   TEWEN  =    -62471.61403159
  -Hartree energ DENC   =    -42952.96661421
  -exchange      EXHF   =         0.00000000
  -V(xc)+E(xc)   XCENC  =      3286.57545527
  PAW double counting   =    112413.73661957  -116108.01238867
  entropy T*S    EENTRO =         0.00000000
  eigenvalues    EBANDS =    -10872.18916450
  atomic energy  EATOM  =    114020.06510763
  Solvation  Ediel_sol  =         0.00000000
  ---------------------------------------------------
  free energy    TOTEN  =      -328.04912512 eV

  energy without entropy =     -328.04912512  energy(sigma->0) =     -328.04912512


--------------------------------------------------------------------------------------------------------




--------------------------------------- Iteration      1(  13)  ---------------------------------------


    POTLOK:  cpu time    0.1382: real time    0.1415
    SETDIJ:  cpu time    0.0130: real time    0.0131
     EDDAV:  cpu time  107.8459: real time  108.6406
 BZINTS: Fermi energy:  4.984887;688.000000 electrons
         Band energy:***********;  BLOECHL correction:  0.000000
       DOS:  cpu time    0.0066: real time    0.0067
    CHARGE:  cpu time    1.4084: real time    1.4189
    MIXING:  cpu time    0.0021: real time    0.0021
    --------------------------------------------
      LOOP:  cpu time  109.4142: real time  110.2229

 eigenvalue-minimisations  : 17920
 total energy-change (2. order) :-0.6059300E-02  (-0.2372167E-02)
 number of electron     688.0000380 magnetization      -0.0000000
 augmentation part      282.2303693 magnetization      -0.0000000

 Broyden mixing:
  rms(total) = 0.30054E-01    rms(broyden)= 0.30052E-01
  rms(prec ) = 0.32072E-01
  weight for this iteration     100.00

 eigenvalues of (default mixing * dielectric matrix)
  average eigenvalue GAMMA=   1.1218
  2.3032  2.3032  1.2223  0.3295  0.9220  0.6091  0.6091  0.6763

 Free energy of the ion-electron system (eV)
  ---------------------------------------------------
  alpha Z        PSCENC =      2356.35589139
  Ewald energy   TEWEN  =    -62471.61403159
  -Hartree energ DENC   =    -42950.32055909
  -exchange      EXHF   =         0.00000000
  -V(xc)+E(xc)   XCENC  =      3286.50009212
  PAW double counting   =    112313.73534242  -116007.52720878
  entropy T*S    EENTRO =         0.00000000
  eigenvalues    EBANDS =    -10875.24981851
  atomic energy  EATOM  =    114020.06510763
  Solvation  Ediel_sol  =         0.00000000
  ---------------------------------------------------
  free energy    TOTEN  =      -328.05518442 eV

  energy without entropy =     -328.05518442  energy(sigma->0) =     -328.05518442


--------------------------------------------------------------------------------------------------------




--------------------------------------- Iteration      1(  14)  ---------------------------------------


    POTLOK:  cpu time    0.1409: real time    0.1419
    SETDIJ:  cpu time    0.0130: real time    0.0130
     EDDAV:  cpu time  173.4652: real time  174.6371
 BZINTS: Fermi energy:  4.985205;688.000000 electrons
         Band energy:***********;  BLOECHL correction:  0.000000
       DOS:  cpu time    0.0066: real time    0.0066
    CHARGE:  cpu time    1.4051: real time    1.4151
    MIXING:  cpu time    0.0021: real time    0.0021
    --------------------------------------------
      LOOP:  cpu time  175.0329: real time  176.2159

 eigenvalue-minimisations  : 23040
 total energy-change (2. order) :-0.2502257E-02  (-0.6129227E-03)
 number of electron     688.0000380 magnetization      -0.0000000
 augmentation part      282.2170353 magnetization      -0.0000000

 Broyden mixing:
  rms(total) = 0.19311E-01    rms(broyden)= 0.19310E-01
  rms(prec ) = 0.20421E-01
  weight for this iteration     100.00

 eigenvalues of (default mixing * dielectric matrix)
  average eigenvalue GAMMA=   1.1924
  2.4227  2.4227  1.6601  1.2906  0.3295  0.6138  0.6138  0.7329  0.6459

 Free energy of the ion-electron system (eV)
  ---------------------------------------------------
  alpha Z        PSCENC =      2356.35589139
  Ewald energy   TEWEN  =    -62471.61403159
  -Hartree energ DENC   =    -42951.32189959
  -exchange      EXHF   =         0.00000000
  -V(xc)+E(xc)   XCENC  =      3286.52942458
  PAW double counting   =    112291.23774415  -115985.25532203
  entropy T*S    EENTRO =         0.00000000
  eigenvalues    EBANDS =    -10874.05460121
  atomic energy  EATOM  =    114020.06510763
  Solvation  Ediel_sol  =         0.00000000
  ---------------------------------------------------
  free energy    TOTEN  =      -328.05768668 eV

  energy without entropy =     -328.05768668  energy(sigma->0) =     -328.05768668


--------------------------------------------------------------------------------------------------------




--------------------------------------- Iteration      1(  15)  ---------------------------------------


    POTLOK:  cpu time    0.1407: real time    0.1427
    SETDIJ:  cpu time    0.0130: real time    0.0131
     EDDAV:  cpu time  123.3053: real time  124.1908
 BZINTS: Fermi energy:  4.985384;688.000000 electrons
         Band energy:***********;  BLOECHL correction:  0.000000
       DOS:  cpu time    0.0069: real time    0.0069
    CHARGE:  cpu time    1.4314: real time    1.4416
    MIXING:  cpu time    0.0022: real time    0.0022
    --------------------------------------------
      LOOP:  cpu time  124.8996: real time  125.7973

 eigenvalue-minimisations  : 19456
 total energy-change (2. order) :-0.1602776E-02  (-0.4361383E-03)
 number of electron     688.0000380 magnetization      -0.0000000
 augmentation part      282.2172358 magnetization      -0.0000000

 Broyden mixing:
  rms(total) = 0.98970E-02    rms(broyden)= 0.98957E-02
  rms(prec ) = 0.10492E-01
  weight for this iteration     100.00

 eigenvalues of (default mixing * dielectric matrix)
  average eigenvalue GAMMA=   1.2261
  2.9515  2.1686  1.9785  1.1354  1.1354  0.3295  0.6110  0.6110  0.7046  0.6354

 Free energy of the ion-electron system (eV)
  ---------------------------------------------------
  alpha Z        PSCENC =      2356.35589139
  Ewald energy   TEWEN  =    -62471.61403159
  -Hartree energ DENC   =    -42951.47434974
  -exchange      EXHF   =         0.00000000
  -V(xc)+E(xc)   XCENC  =      3286.53451123
  PAW double counting   =    112276.47993301  -115970.49391627
  entropy T*S    EENTRO =         0.00000000
  eigenvalues    EBANDS =    -10873.91243511
  atomic energy  EATOM  =    114020.06510763
  Solvation  Ediel_sol  =         0.00000000
  ---------------------------------------------------
  free energy    TOTEN  =      -328.05928945 eV

  energy without entropy =     -328.05928945  energy(sigma->0) =     -328.05928945


--------------------------------------------------------------------------------------------------------




--------------------------------------- Iteration      1(  16)  ---------------------------------------


    POTLOK:  cpu time    0.1376: real time    0.1407
    SETDIJ:  cpu time    0.0131: real time    0.0131
     EDDAV:  cpu time  188.1787: real time  189.4542
 BZINTS: Fermi energy:  4.985257;688.000000 electrons
         Band energy:***********;  BLOECHL correction:  0.000000
       DOS:  cpu time    0.0066: real time    0.0067
    CHARGE:  cpu time    1.4065: real time    1.4168
    MIXING:  cpu time    0.0025: real time    0.0031
    --------------------------------------------
      LOOP:  cpu time  189.7450: real time  191.0346

 eigenvalue-minimisations  : 25344
 total energy-change (2. order) :-0.6169711E-03  (-0.2022324E-03)
 number of electron     688.0000380 magnetization      -0.0000000
 augmentation part      282.2235228 magnetization      -0.0000000

 Broyden mixing:
  rms(total) = 0.64677E-02    rms(broyden)= 0.64667E-02
  rms(prec ) = 0.69267E-02
  weight for this iteration     100.00

 eigenvalues of (default mixing * dielectric matrix)
  average eigenvalue GAMMA=   1.3035
  3.4351  2.1564  2.1564  1.4277  1.4277  0.3295  0.8552  0.6079  0.6079  0.7057
  0.6295

 Free energy of the ion-electron system (eV)
  ---------------------------------------------------
  alpha Z        PSCENC =      2356.35589139
  Ewald energy   TEWEN  =    -62471.61403159
  -Hartree energ DENC   =    -42951.23557537
  -exchange      EXHF   =         0.00000000
  -V(xc)+E(xc)   XCENC  =      3286.53111222
  PAW double counting   =    112269.20714895  -115963.15807183
  entropy T*S    EENTRO =         0.00000000
  eigenvalues    EBANDS =    -10874.21148781
  atomic energy  EATOM  =    114020.06510763
  Solvation  Ediel_sol  =         0.00000000
  ---------------------------------------------------
  free energy    TOTEN  =      -328.05990643 eV

  energy without entropy =     -328.05990643  energy(sigma->0) =     -328.05990643


--------------------------------------------------------------------------------------------------------




--------------------------------------- Iteration      1(  17)  ---------------------------------------


    POTLOK:  cpu time    0.1422: real time    0.1431
    SETDIJ:  cpu time    0.0131: real time    0.0132
     EDDAV:  cpu time  100.9750: real time  101.7256
 BZINTS: Fermi energy:  4.985085;688.000000 electrons
         Band energy:***********;  BLOECHL correction:  0.000000
       DOS:  cpu time    0.0066: real time    0.0066
    CHARGE:  cpu time    1.4062: real time    1.4164
    MIXING:  cpu time    0.0023: real time    0.0023
    --------------------------------------------
      LOOP:  cpu time  102.5455: real time  103.3072

 eigenvalue-minimisations  : 17408
 total energy-change (2. order) :-0.2433752E-03  (-0.1330260E-03)
 number of electron     688.0000380 magnetization      -0.0000000
 augmentation part      282.2207669 magnetization      -0.0000000

 Broyden mixing:
  rms(total) = 0.32817E-02    rms(broyden)= 0.32804E-02
  rms(prec ) = 0.35339E-02
  weight for this iteration     100.00

 eigenvalues of (default mixing * dielectric matrix)
  average eigenvalue GAMMA=   1.3740
  4.1479  2.3534  2.3534  1.5191  1.5191  0.3295  0.9981  0.6087  0.6087  0.7493
  0.6882  0.6126

 Free energy of the ion-electron system (eV)
  ---------------------------------------------------
  alpha Z        PSCENC =      2356.35589139
  Ewald energy   TEWEN  =    -62471.61403159
  -Hartree energ DENC   =    -42951.32101577
  -exchange      EXHF   =         0.00000000
  -V(xc)+E(xc)   XCENC  =      3286.53096348
  PAW double counting   =    112276.13924421  -115970.09343443
  entropy T*S    EENTRO =         0.00000000
  eigenvalues    EBANDS =    -10874.12287472
  atomic energy  EATOM  =    114020.06510763
  Solvation  Ediel_sol  =         0.00000000
  ---------------------------------------------------
  free energy    TOTEN  =      -328.06014980 eV

  energy without entropy =     -328.06014980  energy(sigma->0) =     -328.06014980


--------------------------------------------------------------------------------------------------------




--------------------------------------- Iteration      1(  18)  ---------------------------------------


    POTLOK:  cpu time    0.1426: real time    0.1435
    SETDIJ:  cpu time    0.0130: real time    0.0131
     EDDAV:  cpu time  164.0333: real time  165.1526
 BZINTS: Fermi energy:  4.985063;688.000000 electrons
         Band energy:***********;  BLOECHL correction:  0.000000
       DOS:  cpu time    0.0066: real time    0.0066
    CHARGE:  cpu time    1.4069: real time    1.4160
    MIXING:  cpu time    0.0024: real time    0.0024
    --------------------------------------------
      LOOP:  cpu time  165.6049: real time  166.7344

 eigenvalue-minimisations  : 22528
 total energy-change (2. order) :-0.4300404E-04  (-0.3048496E-04)
 number of electron     688.0000380 magnetization      -0.0000000
 augmentation part      282.2207966 magnetization      -0.0000000

 Broyden mixing:
  rms(total) = 0.17478E-02    rms(broyden)= 0.17472E-02
  rms(prec ) = 0.18718E-02
  weight for this iteration     100.00

 eigenvalues of (default mixing * dielectric matrix)
  average eigenvalue GAMMA=   1.3561
  4.3315  2.4115  2.4115  1.7610  1.1571  1.1571  0.3295  0.8773  0.6074  0.6074
  0.7284  0.6250  0.6250

 Free energy of the ion-electron system (eV)
  ---------------------------------------------------
  alpha Z        PSCENC =      2356.35589139
  Ewald energy   TEWEN  =    -62471.61403159
  -Hartree energ DENC   =    -42951.32651412
  -exchange      EXHF   =         0.00000000
  -V(xc)+E(xc)   XCENC  =      3286.53042919
  PAW double counting   =    112281.59273048  -115975.53532629
  entropy T*S    EENTRO =         0.00000000
  eigenvalues    EBANDS =    -10874.12847948
  atomic energy  EATOM  =    114020.06510763
  Solvation  Ediel_sol  =         0.00000000
  ---------------------------------------------------
  free energy    TOTEN  =      -328.06019280 eV

  energy without entropy =     -328.06019280  energy(sigma->0) =     -328.06019280


--------------------------------------------------------------------------------------------------------




--------------------------------------- Iteration      1(  19)  ---------------------------------------


    POTLOK:  cpu time    0.1414: real time    0.1423
    SETDIJ:  cpu time    0.0131: real time    0.0131
     EDDAV:  cpu time   95.7076: real time   96.4341
 BZINTS: Fermi energy:  4.985074;688.000000 electrons
         Band energy:***********;  BLOECHL correction:  0.000000
       DOS:  cpu time    0.0066: real time    0.0066
    CHARGE:  cpu time    1.4078: real time    1.4177
    MIXING:  cpu time    0.0026: real time    0.0026
    --------------------------------------------
      LOOP:  cpu time   97.2791: real time   98.0164

 eigenvalue-minimisations  : 16896
 total energy-change (2. order) :-0.3634545E-05  (-0.1502208E-05)
 number of electron     688.0000380 magnetization      -0.0000000
 augmentation part      282.2209470 magnetization      -0.0000000

 Broyden mixing:
[...]
   -.419E+02 0.889E+01 -.631E+00   0.428E+02 -.895E+01 0.637E+00   -.861E+00 0.540E-01 -.729E-02   0.997E-06 0.200E-05 -.144E-05
   -.419E+02 0.889E+01 -.631E+00   0.428E+02 -.895E+01 0.637E+00   -.861E+00 0.540E-01 -.729E-02   0.976E-06 0.200E-05 -.144E-05
   -.419E+02 0.889E+01 -.631E+00   0.428E+02 -.895E+01 0.637E+00   -.861E+00 0.540E-01 -.729E-02   0.997E-06 0.198E-05 -.144E-05
   -.419E+02 0.889E+01 -.631E+00   0.428E+02 -.895E+01 0.637E+00   -.861E+00 0.540E-01 -.729E-02   0.976E-06 0.198E-05 -.144E-05
   0.419E+02 0.889E+01 0.631E+00   -.428E+02 -.895E+01 -.637E+00   0.861E+00 0.540E-01 0.729E-02   -.986E-06 0.199E-05 0.144E-05
   0.419E+02 0.889E+01 0.631E+00   -.428E+02 -.895E+01 -.637E+00   0.861E+00 0.540E-01 0.729E-02   -.987E-06 0.199E-05 0.144E-05
   0.419E+02 0.889E+01 0.631E+00   -.428E+02 -.895E+01 -.637E+00   0.861E+00 0.540E-01 0.729E-02   -.986E-06 0.199E-05 0.144E-05
   0.419E+02 0.889E+01 0.631E+00   -.428E+02 -.895E+01 -.637E+00   0.861E+00 0.540E-01 0.729E-02   -.987E-06 0.199E-05 0.144E-05
   0.560E-07 -.360E+02 0.140E-06   0.426E-13 0.369E+02 0.320E-13   0.124E-24 -.817E+00 -.336E-24   0.589E-10 0.205E-05 -.502E-09
   0.560E-07 -.360E+02 0.140E-06   0.924E-13 0.369E+02 0.622E-14   0.447E-24 -.817E+00 0.142E-24   -.632E-10 0.205E-05 0.504E-09
   0.560E-07 -.360E+02 0.140E-06   0.568E-13 0.369E+02 0.142E-13   -.368E-24 -.817E+00 0.401E-24   0.590E-10 0.203E-05 -.502E-09
   0.560E-07 -.360E+02 0.140E-06   0.107E-12 0.369E+02 0.178E-13   0.168E-25 -.817E+00 -.277E-24   -.633E-10 0.203E-05 0.504E-09
   0.118E-08 0.487E+02 -.203E-07   -.103E-12 -.496E+02 0.799E-14   -.133E-23 0.913E+00 -.103E-24   0.108E-07 0.440E-05 -.131E-09
   0.118E-08 0.487E+02 -.203E-07   -.604E-13 -.496E+02 0.000E+00   0.288E-24 0.913E+00 0.103E-23   -.108E-07 0.440E-05 0.133E-09
   0.118E-08 0.487E+02 -.203E-07   -.711E-13 -.496E+02 0.711E-14   -.364E-24 0.913E+00 -.724E-24   0.108E-07 0.441E-05 -.131E-09
   0.118E-08 0.487E+02 -.203E-07   -.853E-13 -.496E+02 0.000E+00   -.121E-23 0.913E+00 0.103E-24   -.108E-07 0.441E-05 0.133E-09
   0.157E+01 -.819E+01 0.869E+00   -.155E+01 0.787E+01 -.887E+00   -.169E-01 0.328E+00 0.129E-01   -.521E-05 0.415E-04 -.152E-05
   0.157E+01 -.819E+01 0.869E+00   -.155E+01 0.787E+01 -.887E+00   -.169E-01 0.328E+00 0.129E-01   -.525E-05 0.415E-04 -.152E-05
   0.157E+01 -.819E+01 0.869E+00   -.155E+01 0.787E+01 -.887E+00   -.169E-01 0.328E+00 0.129E-01   -.521E-05 0.415E-04 -.152E-05
   0.157E+01 -.819E+01 0.869E+00   -.155E+01 0.787E+01 -.887E+00   -.169E-01 0.328E+00 0.129E-01   -.525E-05 0.415E-04 -.152E-05
   -.157E+01 -.819E+01 -.869E+00   0.155E+01 0.787E+01 0.887E+00   0.169E-01 0.328E+00 -.129E-01   0.525E-05 0.415E-04 0.152E-05
   -.157E+01 -.819E+01 -.869E+00   0.155E+01 0.787E+01 0.887E+00   0.169E-01 0.328E+00 -.129E-01   0.520E-05 0.415E-04 0.152E-05
   -.157E+01 -.819E+01 -.869E+00   0.155E+01 0.787E+01 0.887E+00   0.169E-01 0.328E+00 -.129E-01   0.525E-05 0.415E-04 0.152E-05
   -.157E+01 -.819E+01 -.869E+00   0.155E+01 0.787E+01 0.887E+00   0.169E-01 0.328E+00 -.129E-01   0.520E-05 0.415E-04 0.152E-05
   0.157E+01 -.819E+01 0.869E+00   -.155E+01 0.787E+01 -.887E+00   -.169E-01 0.328E+00 0.129E-01   -.520E-05 0.415E-04 -.152E-05
   0.157E+01 -.819E+01 0.869E+00   -.155E+01 0.787E+01 -.887E+00   -.169E-01 0.328E+00 0.129E-01   -.525E-05 0.415E-04 -.152E-05
   0.157E+01 -.819E+01 0.869E+00   -.155E+01 0.787E+01 -.887E+00   -.169E-01 0.328E+00 0.129E-01   -.520E-05 0.415E-04 -.152E-05
   0.157E+01 -.819E+01 0.869E+00   -.155E+01 0.787E+01 -.887E+00   -.169E-01 0.328E+00 0.129E-01   -.525E-05 0.415E-04 -.152E-05
   -.157E+01 -.819E+01 -.869E+00   0.155E+01 0.787E+01 0.887E+00   0.169E-01 0.328E+00 -.129E-01   0.525E-05 0.415E-04 0.152E-05
   -.157E+01 -.819E+01 -.869E+00   0.155E+01 0.787E+01 0.887E+00   0.169E-01 0.328E+00 -.129E-01   0.521E-05 0.415E-04 0.152E-05
   -.157E+01 -.819E+01 -.869E+00   0.155E+01 0.787E+01 0.887E+00   0.169E-01 0.328E+00 -.129E-01   0.525E-05 0.415E-04 0.152E-05
   -.157E+01 -.819E+01 -.869E+00   0.155E+01 0.787E+01 0.887E+00   0.169E-01 0.328E+00 -.129E-01   0.521E-05 0.415E-04 0.152E-05
   -.215E+01 -.788E+01 0.900E+00   0.211E+01 0.745E+01 -.924E+00   0.402E-01 0.431E+00 0.142E-01   0.822E-05 0.119E-04 0.636E-05
   -.215E+01 -.788E+01 0.900E+00   0.211E+01 0.745E+01 -.924E+00   0.402E-01 0.431E+00 0.142E-01   0.819E-05 0.119E-04 0.636E-05
   -.215E+01 -.788E+01 0.900E+00   0.211E+01 0.745E+01 -.924E+00   0.402E-01 0.431E+00 0.142E-01   0.822E-05 0.119E-04 0.636E-05
   -.215E+01 -.788E+01 0.900E+00   0.211E+01 0.745E+01 -.924E+00   0.402E-01 0.431E+00 0.142E-01   0.819E-05 0.119E-04 0.636E-05
   0.215E+01 -.788E+01 -.900E+00   -.211E+01 0.745E+01 0.924E+00   -.402E-01 0.431E+00 -.142E-01   -.819E-05 0.119E-04 -.636E-05
   0.215E+01 -.788E+01 -.900E+00   -.211E+01 0.745E+01 0.924E+00   -.402E-01 0.431E+00 -.142E-01   -.822E-05 0.119E-04 -.636E-05
   0.215E+01 -.788E+01 -.900E+00   -.211E+01 0.745E+01 0.924E+00   -.402E-01 0.431E+00 -.142E-01   -.819E-05 0.119E-04 -.636E-05
   0.215E+01 -.788E+01 -.900E+00   -.211E+01 0.745E+01 0.924E+00   -.402E-01 0.431E+00 -.142E-01   -.822E-05 0.119E-04 -.636E-05
   -.215E+01 -.788E+01 0.900E+00   0.211E+01 0.745E+01 -.924E+00   0.402E-01 0.431E+00 0.142E-01   0.822E-05 0.119E-04 0.636E-05
   -.215E+01 -.788E+01 0.900E+00   0.211E+01 0.745E+01 -.924E+00   0.402E-01 0.431E+00 0.142E-01   0.819E-05 0.119E-04 0.636E-05
   -.215E+01 -.788E+01 0.900E+00   0.211E+01 0.745E+01 -.924E+00   0.402E-01 0.431E+00 0.142E-01   0.822E-05 0.119E-04 0.636E-05
   -.215E+01 -.788E+01 0.900E+00   0.211E+01 0.745E+01 -.924E+00   0.402E-01 0.431E+00 0.142E-01   0.819E-05 0.119E-04 0.636E-05
   0.215E+01 -.788E+01 -.900E+00   -.211E+01 0.745E+01 0.924E+00   -.402E-01 0.431E+00 -.142E-01   -.819E-05 0.119E-04 -.636E-05
   0.215E+01 -.788E+01 -.900E+00   -.211E+01 0.745E+01 0.924E+00   -.402E-01 0.431E+00 -.142E-01   -.822E-05 0.119E-04 -.636E-05
   0.215E+01 -.788E+01 -.900E+00   -.211E+01 0.745E+01 0.924E+00   -.402E-01 0.431E+00 -.142E-01   -.819E-05 0.119E-04 -.636E-05
   0.215E+01 -.788E+01 -.900E+00   -.211E+01 0.745E+01 0.924E+00   -.402E-01 0.431E+00 -.142E-01   -.822E-05 0.119E-04 -.636E-05
 -----------------------------------------------------------------------------------------------
   -.537E-06 -.138E+02 0.334E-03   -.236E-12 -.275E-12 0.345E-13   0.246E-14 0.138E+02 0.121E-16   0.209E-11 0.938E-03 0.551E-11
 
 
 POSITION                                       TOTAL-FORCE (eV/Angst)
 -----------------------------------------------------------------------------------
      1.34281      1.29836      1.31949         0.000370     -0.004074      0.001019
      6.59881      1.29836      1.38369         0.000370     -0.004074      0.001019
      1.34281      6.55778      1.31949         0.000370     -0.004074      0.001019
      6.59881      6.55778      1.38369         0.000370     -0.004074      0.001019
      3.94498      3.92807      1.34645        -0.000370     -0.004074     -0.001019
      9.20098      3.92807      1.41065        -0.000370     -0.004074     -0.001019
      3.94498      9.18748      1.34645        -0.000370     -0.004074     -0.001019
      9.20098      9.18748      1.41065        -0.000370     -0.004074     -0.001019
      1.42523      3.92293      9.12215        -0.000000     -0.003924      0.000000
      6.68123      3.92293      9.18635        -0.000000     -0.003924      0.000000
      1.42523      9.18235      9.12215        -0.000000     -0.003924      0.000000
      6.68123      9.18235      9.18635        -0.000000     -0.003924      0.000000
      4.05323      1.31562      9.15425        -0.000000     -0.000668      0.000000
      9.30923      1.31562      9.21844        -0.000000     -0.000668      0.000000
      4.05323      6.57504      9.15425        -0.000000     -0.000668      0.000000
      9.30923      6.57504      9.21844        -0.000000     -0.000668      0.000000
      1.38053      1.29836      6.51783        -0.000370     -0.004074     -0.001019
      6.63654      1.29836      6.58203        -0.000370     -0.004074     -0.001019
      1.38053      6.55778      6.51783        -0.000370     -0.004074     -0.001019
      6.63654      6.55778      6.58203        -0.000370     -0.004074     -0.001019
      4.03437      3.92807      6.55508         0.000370     -0.004074      0.001019
      9.29037      3.92807      6.61927         0.000370     -0.004074      0.001019
      4.03437      9.18748      6.55508         0.000370     -0.004074      0.001019
      9.29037      9.18748      6.61927         0.000370     -0.004074      0.001019
      3.98967      1.29323      3.95076        -0.000000     -0.003924      0.000000
      9.24568      1.29323      4.01496        -0.000000     -0.003924      0.000000
      3.98967      6.55264      3.95076        -0.000000     -0.003924      0.000000
      9.24568      6.55264      4.01496        -0.000000     -0.003924      0.000000
      1.36167      3.94533      3.91866        -0.000000     -0.000668      0.000000
      6.61767      3.94533      3.98286        -0.000000     -0.000668      0.000000
      1.36167      9.20474      3.91866        -0.000000     -0.000668      0.000000
      6.61767      9.20474      3.98286        -0.000000     -0.000668      0.000000
     10.56960      0.01365      5.33183         0.002647      0.002691     -0.004977
      5.31359      0.01365      5.26763         0.002647      0.002691     -0.004977
     10.56960      5.27307      5.33183         0.002647      0.002691     -0.004977
      5.31359      5.27307      5.26763         0.002647      0.002691     -0.004977
      2.66575      0.01365      2.63389        -0.002647      0.002691      0.004977
      7.92176      0.01365      2.69809        -0.002647      0.002691      0.004977
      2.66575      5.27307      2.63389        -0.002647      0.002691      0.004977
      7.92176      5.27307      2.69809        -0.002647      0.002691      0.004977
      2.62203      2.64336      0.03205         0.002647      0.002691     -0.004977
      7.87804      2.64336      0.09624         0.002647      0.002691     -0.004977
      2.62203      7.90278      0.03205         0.002647      0.002691     -0.004977
      7.87804      7.90278      0.09624         0.002647      0.002691     -0.004977
      0.10131      2.64336      7.80528        -0.002647      0.002691      0.004977
      5.35731      2.64336      7.86948        -0.002647      0.002691      0.004977
      0.10131      7.90278      7.80528        -0.002647      0.002691      0.004977
      5.35731      7.90278      7.86948        -0.002647      0.002691      0.004977
     10.50857      0.01327      0.13030         0.002923      0.003679     -0.010174
      5.25256      0.01327      0.06610         0.002923      0.003679     -0.010174
     10.50857      5.27269      0.13030         0.002923      0.003679     -0.010174
      5.25256      5.27269      0.06610         0.002923      0.003679     -0.010174
      2.72678      0.01327      7.83542        -0.002923      0.003679      0.010174
      7.98279      0.01327      7.89962        -0.002923      0.003679      0.010174
      2.72678      5.27269      7.83542        -0.002923      0.003679      0.010174
      7.98279      5.27269      7.89962        -0.002923      0.003679      0.010174
      2.68811      2.64298      5.23749         0.002923      0.003679     -0.010174
      7.94412      2.64298      5.30169         0.002923      0.003679     -0.010174
      2.68811      7.90240      5.23749         0.002923      0.003679     -0.010174
      7.94412      7.90240      5.30169         0.002923      0.003679     -0.010174
      0.03522      2.64298      2.59984        -0.002923      0.003679      0.010174
      5.29123      2.64298      2.66404        -0.002923      0.003679      0.010174
      0.03522      7.90240      2.59984        -0.002923      0.003679      0.010174
      5.29123      7.90240      2.66404        -0.002923      0.003679      0.010174
 -----------------------------------------------------------------------------------
    total drift:                               -0.000001     -0.025996      0.000334


--------------------------------------------------------------------------------------------------------



  FREE ENERGIE OF THE ION-ELECTRON SYSTEM (eV)
  ---------------------------------------------------
  free  energy   TOTEN  =      -328.06019885 eV

  energy  without entropy=     -328.06019885  energy(sigma->0) =     -328.06019885
 


--------------------------------------------------------------------------------------------------------


    POTLOK:  cpu time    0.1675: real time    0.1734


--------------------------------------------------------------------------------------------------------


 writing wavefunctions
     LOOP+:  cpu time 3930.7284: real time 3958.7600
    4ORBIT:  cpu time    0.0000: real time    0.0000
 


 total charge     
 
# of ion       s       p       d       tot
------------------------------------------
    1        1.313   2.410   0.000   3.724
    2        1.313   2.410   0.000   3.724
    3        1.313   2.410   0.000   3.724
    4        1.313   2.410   0.000   3.724
    5        1.313   2.410   0.000   3.724
    6        1.313   2.410   0.000   3.724
    7        1.313   2.410   0.000   3.724
    8        1.313   2.410   0.000   3.724
    9        1.314   2.409   0.000   3.723
   10        1.314   2.409   0.000   3.723
   11        1.314   2.409   0.000   3.723
   12        1.314   2.409   0.000   3.723
   13        1.313   2.411   0.000   3.724
   14        1.313   2.411   0.000   3.724
   15        1.313   2.411   0.000   3.724
   16        1.313   2.411   0.000   3.724
   17        1.313   2.410   0.000   3.724
   18        1.313   2.410   0.000   3.724
   19        1.313   2.410   0.000   3.724
   20        1.313   2.410   0.000   3.724
   21        1.313   2.410   0.000   3.724
   22        1.313   2.410   0.000   3.724
   23        1.313   2.410   0.000   3.724
   24        1.313   2.410   0.000   3.724
   25        1.314   2.409   0.000   3.723
   26        1.314   2.409   0.000   3.723
   27        1.314   2.409   0.000   3.723
   28        1.314   2.409   0.000   3.723
   29        1.313   2.411   0.000   3.724
   30        1.313   2.411   0.000   3.724
   31        1.313   2.411   0.000   3.724
   32        1.313   2.411   0.000   3.724
   33        0.260   6.202   8.917  15.378
   34        0.260   6.202   8.917  15.378
   35        0.260   6.202   8.917  15.378
   36        0.260   6.202   8.917  15.378
   37        0.260   6.202   8.917  15.378
   38        0.260   6.202   8.917  15.378
   39        0.260   6.202   8.917  15.378
   40        0.260   6.202   8.917  15.378
   41        0.260   6.202   8.917  15.378
   42        0.260   6.202   8.917  15.378
   43        0.260   6.202   8.917  15.378
   44        0.260   6.202   8.917  15.378
   45        0.260   6.202   8.917  15.378
   46        0.260   6.202   8.917  15.378
   47        0.260   6.202   8.917  15.378
   48        0.260   6.202   8.917  15.378
   49        0.350   6.351   5.820  12.521
   50        0.350   6.351   5.820  12.521
   51        0.350   6.351   5.820  12.521
   52        0.350   6.351   5.820  12.521
   53        0.350   6.351   5.820  12.521
   54        0.350   6.351   5.820  12.521
   55        0.350   6.351   5.820  12.521
   56        0.350   6.351   5.820  12.521
   57        0.350   6.351   5.820  12.521
   58        0.350   6.351   5.820  12.521
   59        0.350   6.351   5.820  12.521
   60        0.350   6.351   5.820  12.521
   61        0.350   6.351   5.820  12.521
   62        0.350   6.351   5.820  12.521
   63        0.350   6.351   5.820  12.521
   64        0.350   6.351   5.820  12.521
--------------------------------------------------
tot         51.790 277.976 235.786 565.552
 


 magnetization (x)
 
# of ion       s       p       d       tot
------------------------------------------
    1       -0.000  -0.006   0.000  -0.006
    2       -0.000  -0.006   0.000  -0.006
    3       -0.000  -0.006   0.000  -0.006
    4       -0.000  -0.006   0.000  -0.006
    5        0.000   0.006   0.000   0.006
    6        0.000   0.006   0.000   0.006
    7        0.000   0.006   0.000   0.006
    8        0.000   0.006   0.000   0.006
    9        0.000   0.000   0.000   0.000
   10        0.000  -0.000   0.000  -0.000
   11       -0.000   0.000   0.000   0.000
   12        0.000  -0.000   0.000  -0.000
   13        0.000   0.000   0.000   0.000
   14        0.000   0.000   0.000   0.000
   15       -0.000   0.000   0.000   0.000
   16        0.000   0.000   0.000   0.000
   17        0.000   0.006   0.000   0.006
   18        0.000   0.006   0.000   0.006
   19        0.000   0.006   0.000   0.006
   20        0.000   0.006   0.000   0.006
   21       -0.000  -0.006   0.000  -0.006
   22       -0.000  -0.006   0.000  -0.006
   23       -0.000  -0.006   0.000  -0.006
   24       -0.000  -0.006   0.000  -0.006
   25        0.000  -0.000   0.000  -0.000
   26        0.000  -0.000   0.000  -0.000
   27        0.000  -0.000   0.000  -0.000
   28        0.000  -0.000   0.000  -0.000
   29        0.000  -0.000   0.000  -0.000
   30       -0.000   0.000   0.000   0.000
   31        0.000  -0.000   0.000  -0.000
   32       -0.000   0.000   0.000   0.000
   33        0.000   0.001  -0.001  -0.000
   34        0.000   0.001  -0.001  -0.000
   35        0.000   0.001  -0.001  -0.000
   36        0.000   0.001  -0.001  -0.000
   37       -0.000  -0.001   0.001   0.000
   38       -0.000  -0.001   0.001   0.000
   39       -0.000  -0.001   0.001   0.000
   40       -0.000  -0.001   0.001   0.000
   41        0.000   0.001  -0.001  -0.000
   42        0.000   0.001  -0.001  -0.000
   43        0.000   0.001  -0.001  -0.000
   44        0.000   0.001  -0.001  -0.000
   45       -0.000  -0.001   0.001   0.000
   46       -0.000  -0.001   0.001   0.000
   47       -0.000  -0.001   0.001   0.000
   48       -0.000  -0.001   0.001   0.000
   49        0.020   0.054   3.670   3.744
   50        0.020   0.054   3.670   3.744
   51        0.020   0.054   3.670   3.744
   52        0.020   0.054   3.670   3.744
   53       -0.020  -0.054  -3.670  -3.744
   54       -0.020  -0.054  -3.670  -3.744
   55       -0.020  -0.054  -3.670  -3.744
   56       -0.020  -0.054  -3.670  -3.744
   57        0.020   0.054   3.670   3.744
   58        0.020   0.054   3.670   3.744
   59        0.020   0.054   3.670   3.744
   60        0.020   0.054   3.670   3.744
   61       -0.020  -0.054  -3.670  -3.744
   62       -0.020  -0.054  -3.670  -3.744
   63       -0.020  -0.054  -3.670  -3.744
   64       -0.020  -0.054  -3.670  -3.744
--------------------------------------------------
tot          0.000  -0.000  -0.000  -0.000
 
 BZINTS: Fermi energy:  4.985061;688.000000 electrons
         Band energy:***********;  BLOECHL correction:  0.000000

 total amount of memory used by VASP MPI-rank0   349631. kBytes
=======================================================================

   base      :      30000. kBytes
   nonl-proj :     217907. kBytes
   fftplans  :       4588. kBytes
   grid      :      69719. kBytes
   one-center:       1990. kBytes
   wavefun   :      25427. kBytes
 
  
  
 General timing and accounting informations for this job:
 ========================================================
  
                  Total CPU time used (sec):     3990.507
                            User time (sec):     3978.891
                          System time (sec):       11.616
                         Elapsed time (sec):     4019.934
  
                   Maximum memory used (kb):      709988.
                   Average memory used (kb):           0.
  
                          Minor page faults:       745884
                          Major page faults:         5866
                 Voluntary context switches:         7160
