 vasp.5.4.4.18Apr17-6-g9f103f2a35 (build Oct 30 2023 17:30:16) complex          
  
 executed on             LinuxIFC date 2024.06.30  04:42:09
 running on  256 total cores
 distrk:  each k-point on  256 cores,    1 groups
 distr:  one band on NCORES_PER_BAND=   1 cores,  256 groups


--------------------------------------------------------------------------------------------------------


 INCAR:
 POTCAR:    PAW_PBE S 06Sep2000                   
 POTCAR:     PAW_PBE Cu_pv 06Sep2000              
 POTCAR:     PAW_PBE Fe_pv 02Aug2007              

 ----------------------------------------------------------------------------- 
|                                                                             |
|           W    W    AA    RRRRR   N    N  II  N    N   GGGG   !!!           |
|           W    W   A  A   R    R  NN   N  II  NN   N  G    G  !!!           |
|           W    W  A    A  R    R  N N  N  II  N N  N  G       !!!           |
|           W WW W  AAAAAA  RRRRR   N  N N  II  N  N N  G  GGG   !            |
|           WW  WW  A    A  R   R   N   NN  II  N   NN  G    G                |
|           W    W  A    A  R    R  N    N  II  N    N   GGGG   !!!           |
|                                                                             |
|      For optimal performance we recommend to set                            |
|        NCORE= 4 - approx SQRT( number of cores)                             |
|      NCORE specifies how many cores store one orbital (NPAR=cpu/NCORE).     |
|      This setting can  greatly improve the performance of VASP for DFT.     |
|      The default,   NCORE=1            might be grossly inefficient         |
|      on modern multi-core architectures or massively parallel machines.     |
|      Do your own testing !!!!                                               |
|      Unfortunately you need to use the default for GW and RPA calculations. |
|      (for HF NCORE is supported but not extensively tested yet)             |
|                                                                             |
 ----------------------------------------------------------------------------- 

 POTCAR:    PAW_PBE S 06Sep2000                   
   SHA256 =  0fc7481fb0695f01bdc6462160264c5c84044ae9ec85a907d398b887a2bc3132 S/
   COPYR  = (c) Copyright 06Sep2000 Georg Kresse                                
   COPYR  = This file is part of the software VASP. Any use, copying, and all ot
   COPYR  = If you do not have a valid VASP license, you may not use, copy or di
   VRHFIN =S : s2p4                                                             
   LEXCH  = PE                                                                  
   EATOM  =   276.8230 eV,   20.3459 Ry                                         
                                                                                
   TITEL  = PAW_PBE S 06Sep2000                                                 
   LULTRA =        F    use ultrasoft PP ?                                      
   IUNSCR =        1    unscreen: 0-lin 1-nonlin 2-no                           
   RPACOR =    1.500    partial core radius                                     
   POMASS =   32.066; ZVAL   =    6.000    mass and valenz                      
   RCORE  =    1.900    outmost cutoff radius                                   
   RWIGS  =    2.200; RWIGS  =    1.164    wigner-seitz radius (au A)           
   ENMAX  =  258.689; ENMIN  =  194.016 eV                                      
   ICORE  =        2    local potential                                         
   LCOR   =        T    correct aug charges                                     
   LPAW   =        T    paw PP                                                  
   EAUG   =  335.092                                                            
   DEXC   =    0.000                                                            
   RMAX   =    1.942    core radius for proj-oper                               
   RAUG   =    1.300    factor for augmentation sphere                          
   RDEP   =    1.954    radius for radial grids                                 
   RDEPT  =    1.744    core radius for aug-charge                              
                                                                                
   Atomic configuration                                                         
    6 entries                                                                   
     n  l   j            E        occ.                                          
     1  0  0.50     -2405.8406   2.0000                                         
     2  0  0.50      -211.7007   2.0000                                         
     2  1  1.50      -156.4958   6.0000                                         
     3  0  0.50       -17.2562   2.0000                                         
     3  1  0.50        -7.0085   4.0000                                         
     3  2  1.50        -6.8029   0.0000                                         
   Description                                                                  
     l       E           TYP  RCUT    TYP  RCUT                                 
     0    -17.2561641     23  1.900                                             
     0    -15.8743224     23  1.900                                             
     1     -7.0085400     23  1.900                                             
     1     -2.7779785     23  1.900                                             
     2     -6.8029130     23  1.900                                             
  local pseudopotential read in
  partial core-charges read in
  partial kinetic energy density read in
  atomic valenz-charges read in
  non local Contribution for L=           0  read in
    real space projection operators read in
  non local Contribution for L=           0  read in
    real space projection operators read in
  non local Contribution for L=           1  read in
    real space projection operators read in
  non local Contribution for L=           1  read in
    real space projection operators read in
    PAW grid and wavefunctions read in
 
   number of l-projection  operators is LMAX  =           4
   number of lm-projection operators is LMMAX =           8
 
 POTCAR:     PAW_PBE Cu_pv 06Sep2000              
   SHA256 =  cb7b504e2ea725fe1f25c85a9ac77d4012ce94cd394135b722c4e25ec297f1cb Cu
   COPYR  = (c) Copyright 06Sep2000 Georg Kresse                                
   COPYR  = This file is part of the software VASP. Any use, copying, and all ot
   COPYR  = If you do not have a valid VASP license, you may not use, copy or di
   VRHFIN =Cu: d10 p1                                                           
   LEXCH  = PE                                                                  
   EATOM  =  4120.1201 eV,  302.8203 Ry                                         
                                                                                
   TITEL  = PAW_PBE Cu_pv 06Sep2000                                             
   LULTRA =        F    use ultrasoft PP ?                                      
   IUNSCR =        1    unscreen: 0-lin 1-nonlin 2-no                           
   RPACOR =    1.500    partial core radius                                     
   POMASS =   63.546; ZVAL   =   17.000    mass and valenz                      
   RCORE  =    2.000    outmost cutoff radius                                   
   RWIGS  =    2.000; RWIGS  =    1.058    wigner-seitz radius (au A)           
   ENMAX  =  368.648; ENMIN  =  276.486 eV                                      
   RCLOC  =    1.304    cutoff for local pot                                    
   LCOR   =        T    correct aug charges                                     
   LPAW   =        T    paw PP                                                  
   EAUG   =  758.233                                                            
   DEXC   =    0.000                                                            
   RMAX   =    2.046    core radius for proj-oper                               
   RAUG   =    1.300    factor for augmentation sphere                          
   RDEP   =    2.025    radius for radial grids                                 
   RDEPT  =    1.558    core radius for aug-charge                              
                                                                                
   Atomic configuration                                                         
    8 entries                                                                   
     n  l   j            E        occ.                                          
     1  0  0.50     -8850.2467   2.0000                                         
     2  0  0.50     -1062.3498   2.0000                                         
     2  1  1.50      -916.8226   6.0000                                         
     3  0  0.50      -114.6929   2.0000                                         
     3  1  1.50       -72.1325   6.0000                                         
     3  2  2.50        -5.0394  10.0000                                         
     4  0  0.50        -4.6097   1.0000                                         
     4  3  2.50        -1.3606   0.0000                                         
   Description                                                                  
     l       E           TYP  RCUT    TYP  RCUT                                 
     1    -72.1324777     23  1.700                                             
     1     -1.3605826     23  1.700                                             
     2     -5.0393776     23  2.000                                             
     2     -6.3999602     23  2.000                                             
     0     -4.6097062     23  1.800                                             
     0     14.1620818     23  1.800                                             
  local pseudopotential read in
  partial core-charges read in
  partial kinetic energy density read in
  atomic valenz-charges read in
  non local Contribution for L=           1  read in
    real space projection operators read in
  non local Contribution for L=           1  read in
    real space projection operators read in
  non local Contribution for L=           2  read in
    real space projection operators read in
  non local Contribution for L=           2  read in
    real space projection operators read in
  non local Contribution for L=           0  read in
    real space projection operators read in
  non local Contribution for L=           0  read in
    real space projection operators read in
    PAW grid and wavefunctions read in
 
   number of l-projection  operators is LMAX  =           6
   number of lm-projection operators is LMMAX =          18
 
 POTCAR:     PAW_PBE Fe_pv 02Aug2007              
   SHA256 =  5d22e414b1f82158bf2c7ecb8b97b28fd0923e48cadc1c3bf74d524558f5dd32 Fe
   COPYR  = (c) Copyright 02Aug2007 Georg Kresse                                
   COPYR  = This file is part of the software VASP. Any use, copying, and all ot
   COPYR  = If you do not have a valid VASP license, you may not use, copy or di
   VRHFIN =Fe:  3pd7s1                                                          
   LEXCH  = PE                                                                  
   EATOM  =  2457.4239 eV,  180.6156 Ry                                         
                                                                                
   TITEL  = PAW_PBE Fe_pv 02Aug2007                                             
   LULTRA =        F    use ultrasoft PP ?                                      
   IUNSCR =        1    unscreen: 0-lin 1-nonlin 2-no                           
   RPACOR =    1.750    partial core radius                                     
   POMASS =   55.847; ZVAL   =   14.000    mass and valenz                      
   RCORE  =    2.200    outmost cutoff radius                                   
   RWIGS  =    2.200; RWIGS  =    1.164    wigner-seitz radius (au A)           
   ENMAX  =  293.238; ENMIN  =  219.928 eV                                      
   ICORE  =        3    local potential                                         
   LCOR   =        T    correct aug charges                                     
   LPAW   =        T    paw PP                                                  
   EAUG   =  578.342                                                            
   DEXC   =    0.000                                                            
   RMAX   =    2.249    core radius for proj-oper                               
   RAUG   =    1.300    factor for augmentation sphere                          
   RDEP   =    2.296    radius for radial grids                                 
   RDEPT  =    1.766    core radius for aug-charge                              
                                                                                
   Atomic configuration                                                         
    8 entries                                                                   
     n  l   j            E        occ.                                          
     1  0  0.50     -6993.8440   2.0000                                         
     2  0  0.50      -814.6047   2.0000                                         
     2  1  1.50      -693.3689   6.0000                                         
     3  0  0.50       -89.4732   2.0000                                         
     3  1  1.50       -55.6373   6.0000                                         
     3  2  2.50        -3.8151   7.0000                                         
     4  0  0.50        -4.2551   1.0000                                         
     4  3  2.50        -1.3606   0.0000                                         
   Description                                                                  
     l       E           TYP  RCUT    TYP  RCUT                                 
     1    -55.6372668     23  2.000                                             
     1     -5.4423304     23  2.000                                             
     2     -3.8151096     23  2.200                                             
     2     -5.1756922     23  2.200                                             
     0     -4.2550951     23  2.200                                             
     0     27.2116520     23  2.200                                             
     3     -1.3605826     23  2.200                                             
  local pseudopotential read in
  partial core-charges read in
  partial kinetic energy density read in
  atomic valenz-charges read in
  non local Contribution for L=           1  read in
    real space projection operators read in
  non local Contribution for L=           1  read in
    real space projection operators read in
  non local Contribution for L=           2  read in
    real space projection operators read in
  non local Contribution for L=           2  read in
    real space projection operators read in
  non local Contribution for L=           0  read in
    real space projection operators read in
  non local Contribution for L=           0  read in
    real space projection operators read in
    PAW grid and wavefunctions read in
 
   number of l-projection  operators is LMAX  =           6
   number of lm-projection operators is LMMAX =          18
 

 ----------------------------------------------------------------------------- 
|                                                                             |
|  ADVICE TO THIS USER RUNNING 'VASP/VAMP'   (HEAR YOUR MASTER'S VOICE ...):  |
|                                                                             |
|      You have a (more or less) 'large supercell' and for larger cells       |
|      it might be more efficient to use real space projection opertators     |
|      So try LREAL= Auto  in the INCAR   file.                               |
|      Mind:          For very  accurate calculation you might also keep the  |
|      reciprocal projection scheme          (i.e. LREAL=.FALSE.)             |
|                                                                             |
 ----------------------------------------------------------------------------- 


 ----------------------------------------------------------------------------- 
|                                                                             |
|  ADVICE TO THIS USER RUNNING 'VASP/VAMP'   (HEAR YOUR MASTER'S VOICE ...):  |
|                                                                             |
|      You enforced a specific xc-type in the INCAR file,                     |
|      a different type was found on the POTCAR file                          |
|          I HOPE YOU KNOW, WHAT YOU ARE  DOING                               |
|                                                                             |
 ----------------------------------------------------------------------------- 

  PAW_PBE S 06Sep2000                   :
 energy of atom  1       EATOM= -276.8230
 kinetic energy error for atom=    0.0007 (will be added to EATOM!!)
   PAW_PBE Cu_pv 06Sep2000              :
 energy of atom  2       EATOM=-4120.1201
 kinetic energy error for atom=    0.0094 (will be added to EATOM!!)
   PAW_PBE Fe_pv 02Aug2007              :
 energy of atom  3       EATOM=-2457.4239
 kinetic energy error for atom=    0.0025 (will be added to EATOM!!)
 
 
 POSCAR: Fe16 Cu16 S32                           
  positions in direct lattice
  No initial velocities read in
 exchange correlation table for  LEXCH =       14
   RHO(1)=    0.500       N(1)  =     2000
   RHO(2)=  100.500       N(2)  =     4000
 


--------------------------------------------------------------------------------------------------------


 ion  position               nearest neighbor table
   1  0.126  0.119  0.126-  41 2.25  61 2.26  37 2.28  49 2.30
   2  0.626  0.119  0.126-  42 2.25  62 2.26  38 2.28  50 2.30
   3  0.126  0.619  0.126-  43 2.25  63 2.26  39 2.28  51 2.30
   4  0.626  0.619  0.126-  44 2.25  64 2.26  40 2.28  52 2.30
   5  0.374  0.369  0.124-  39 2.25  52 2.26  41 2.28  62 2.30
   6  0.874  0.369  0.124-  40 2.25  51 2.26  42 2.28  61 2.30
   7  0.374  0.869  0.124-  37 2.25  50 2.26  43 2.28  64 2.30
   8  0.874  0.869  0.124-  38 2.25  49 2.26  44 2.28  63 2.30
   9  0.125  0.370  0.875-  51 2.27  55 2.27  41 2.27  45 2.27
  10  0.625  0.370  0.875-  52 2.27  56 2.27  42 2.27  46 2.27
  11  0.125  0.870  0.875-  49 2.27  53 2.27  43 2.27  47 2.27
  12  0.625  0.870  0.875-  50 2.27  54 2.27  44 2.27  48 2.27
  13  0.375  0.122  0.875-  41 2.26  46 2.26  50 2.29  53 2.29
  14  0.875  0.122  0.875-  42 2.26  45 2.26  49 2.29  54 2.29
  15  0.375  0.622  0.875-  43 2.26  48 2.26  52 2.29  55 2.29
  16  0.875  0.622  0.875-  44 2.26  47 2.26  51 2.29  56 2.29
  17  0.124  0.119  0.624-  45 2.25  57 2.26  33 2.28  53 2.30
  18  0.624  0.119  0.624-  46 2.25  58 2.26  34 2.28  54 2.30
  19  0.124  0.619  0.624-  47 2.25  59 2.26  35 2.28  55 2.30
  20  0.624  0.619  0.624-  48 2.25  60 2.26  36 2.28  56 2.30
  21  0.376  0.369  0.626-  36 2.25  55 2.26  46 2.28  57 2.30
  22  0.876  0.369  0.626-  35 2.25  56 2.26  45 2.28  58 2.30
  23  0.376  0.869  0.626-  34 2.25  53 2.26  48 2.28  59 2.30
  24  0.876  0.869  0.626-  33 2.25  54 2.26  47 2.28  60 2.30
  25  0.375  0.120  0.375-  57 2.27  62 2.27  34 2.27  37 2.27
  26  0.875  0.120  0.375-  58 2.27  61 2.27  33 2.27  38 2.27
  27  0.375  0.620  0.375-  59 2.27  64 2.27  36 2.27  39 2.27
  28  0.875  0.620  0.375-  60 2.27  63 2.27  35 2.27  40 2.27
  29  0.125  0.372  0.375-  35 2.26  39 2.26  57 2.29  61 2.29
  30  0.625  0.372  0.375-  36 2.26  40 2.26  58 2.29  62 2.29
  31  0.125  0.872  0.375-  33 2.26  37 2.26  59 2.29  63 2.29
  32  0.625  0.872  0.375-  34 2.26  38 2.26  60 2.29  64 2.29
  33  0.998  0.005  0.500-  24 2.25  31 2.26  26 2.27  17 2.28
  34  0.498  0.005  0.500-  23 2.25  32 2.26  25 2.27  18 2.28
  35  0.998  0.505  0.500-  22 2.25  29 2.26  28 2.27  19 2.28
  36  0.498  0.505  0.500-  21 2.25  30 2.26  27 2.27  20 2.28
  37  0.252  0.005  0.250-   7 2.25  31 2.26  25 2.27   1 2.28
  38  0.752  0.005  0.250-   8 2.25  32 2.26  26 2.27   2 2.28
  39  0.252  0.505  0.250-   5 2.25  29 2.26  27 2.27   3 2.28
  40  0.752  0.505  0.250-   6 2.25  30 2.26  28 2.27   4 2.28
  41  0.248  0.255  0.000-   1 2.25  13 2.26   9 2.27   5 2.28
  42  0.748  0.255  0.000-   2 2.25  14 2.26  10 2.27   6 2.28
  43  0.248  0.755  0.000-   3 2.25  15 2.26  11 2.27   7 2.28
  44  0.748  0.755  0.000-   4 2.25  16 2.26  12 2.27   8 2.28
  45  0.002  0.255  0.750-  17 2.25  14 2.26   9 2.27  22 2.28
  46  0.502  0.255  0.750-  18 2.25  13 2.26  10 2.27  21 2.28
  47  0.002  0.755  0.750-  19 2.25  16 2.26  11 2.27  24 2.28
  48  0.502  0.755  0.750-  20 2.25  15 2.26  12 2.27  23 2.28
  49  0.999  0.005  0.001-   8 2.26  11 2.27  14 2.29   1 2.30
  50  0.499  0.005  0.001-   7 2.26  12 2.27  13 2.29   2 2.30
  51  0.999  0.505  0.001-   6 2.26   9 2.27  16 2.29   3 2.30
  52  0.499  0.505  0.001-   5 2.26  10 2.27  15 2.29   4 2.30
  53  0.251  0.005  0.749-  23 2.26  11 2.27  13 2.29  17 2.30
  54  0.751  0.005  0.749-  24 2.26  12 2.27  14 2.29  18 2.30
  55  0.251  0.505  0.749-  21 2.26   9 2.27  15 2.29  19 2.30
  56  0.751  0.505  0.749-  22 2.26  10 2.27  16 2.29  20 2.30
  57  0.249  0.255  0.501-  17 2.26  25 2.27  29 2.29  21 2.30
  58  0.749  0.255  0.501-  18 2.26  26 2.27  30 2.29  22 2.30
  59  0.249  0.755  0.501-  19 2.26  27 2.27  31 2.29  23 2.30
  60  0.749  0.755  0.501-  20 2.26  28 2.27  32 2.29  24 2.30
  61  0.001  0.255  0.249-   1 2.26  26 2.27  29 2.29   6 2.30
  62  0.501  0.255  0.249-   2 2.26  25 2.27  30 2.29   5 2.30
  63  0.001  0.755  0.249-   3 2.26  28 2.27  31 2.29   8 2.30
  64  0.501  0.755  0.249-   4 2.26  27 2.27  32 2.29   7 2.30
 
  LATTYP: Found a simple monoclinic cell.
 ALAT       =    15.4982413980
 B/A-ratio  =     0.6792717786
 C/A-ratio  =     1.5626327407
 COS(beta)  =    -0.9569908307
  
  Lattice vectors:
  
 A1 = ( -11.0086940000,   0.0000000000, -10.9089020000)
 A2 = (   0.0000000000, -10.5275180000,   0.0000000000)
 A3 = (  11.5171480000,   0.0000000000,  21.3042180000)


Analysis of symmetry for initial positions (statically):
=====================================================================
 Subroutine PRICEL returns following result:
 
  LATTYP: Found a base centered monoclinic cell.
 ALAT       =    11.1925441736
 B/A-ratio  =     0.4702915547
 C/A-ratio  =     0.9298818142
 COS(beta)  =    -0.7999965395
  
  Lattice vectors:
  
 A1 = (  -2.3708330000,  -2.6318795000,   5.0692615000)
 A2 = (  -2.3708330000,   2.6318795000,   5.0692615000)
 A3 = (  -0.5084540000,   0.0000000000, -10.3953160000)
 
   8 primitive cells build up your supercell.
 

 Routine SETGRP: Setting up the symmetry group for a 
 simple monoclinic supercell.


 Subroutine GETGRP returns: Found  2 space group operations
 (whereof  1 operations were pure point group operations)
 out of a pool of  4 trial point group operations.


The static configuration has the point symmetry C_1 .
 The point group associated with its full space group is C_2 .


Analysis of symmetry for dynamics (positions and initial velocities):
=====================================================================
 Subroutine PRICEL returns following result:
 
  LATTYP: Found a base centered monoclinic cell.
 ALAT       =    11.1925441736
 B/A-ratio  =     0.4702915547
 C/A-ratio  =     0.9298818142
 COS(beta)  =    -0.7999965395
  
  Lattice vectors:
  
 A1 = (  -2.3708330000,  -2.6318795000,   5.0692615000)
 A2 = (  -2.3708330000,   2.6318795000,   5.0692615000)
 A3 = (  -0.5084540000,   0.0000000000, -10.3953160000)
 
   8 primitive cells build up your supercell.
 

 Routine SETGRP: Setting up the symmetry group for a 
 simple monoclinic supercell.


 Subroutine GETGRP returns: Found  2 space group operations
 (whereof  1 operations were pure point group operations)
 out of a pool of  4 trial point group operations.


The dynamic configuration has the point symmetry C_1 .
 The point group associated with its full space group is C_2 .


Analysis of structural, dynamic, and magnetic symmetry:
=====================================================================
 Subroutine PRICEL returns following result:
 
  LATTYP: Found a base centered monoclinic cell.
 ALAT       =    11.1925441736
 B/A-ratio  =     0.4702915547
 C/A-ratio  =     0.9298818142
 COS(beta)  =    -0.7999965395
  
  Lattice vectors:
  
 A1 = (  -2.3708330000,  -2.6318795000,   5.0692615000)
 A2 = (  -2.3708330000,   2.6318795000,   5.0692615000)
 A3 = (  -0.5084540000,   0.0000000000, -10.3953160000)
 
   8 primitive cells build up your supercell.
 

 Routine SETGRP: Setting up the symmetry group for a 
 simple monoclinic supercell.


 Subroutine GETGRP returns: Found  2 space group operations
 (whereof  1 operations were pure point group operations)
 out of a pool of  4 trial point group operations.


The magnetic configuration has the point symmetry C_1 .
 The point group associated with its full space group is C_2 .


 Subroutine INISYM returns: Found  2 space group operations
 (whereof  1 operations are pure point group operations),
 and found     8 'primitive' translations

 
 
 KPOINTS: Automatic mesh                          

Automatic generation of k-mesh.
Space group operators:
 irot       det(A)        alpha          n_x          n_y          n_z        tau_x        tau_y        tau_z
    1     1.000000     0.000001     1.000000     0.000000     0.000000     0.000000     0.000000     0.000000
    2     1.000000   180.000000     0.000000     1.000000     0.000000    -0.250000     0.000000    -0.250000
 
 Subroutine IBZKPT returns following result:
 ===========================================
 
 Found      8 irreducible k-points:
 
 Following reciprocal coordinates:
            Coordinates               Weight
  0.000000  0.000000  0.000000      1.000000
  0.500000  0.000000  0.000000      1.000000
  0.000000  0.500000  0.000000      1.000000
  0.500000  0.500000  0.000000      1.000000
  0.000000  0.000000  0.500000      1.000000
  0.500000  0.000000  0.500000      1.000000
  0.000000  0.500000  0.500000      1.000000
  0.500000  0.500000  0.500000      1.000000
 
 Following cartesian coordinates:
            Coordinates               Weight
  0.000000  0.000000  0.000000      1.000000
  0.047732  0.000000 -0.002335      1.000000
  0.000000  0.047495  0.000000      1.000000
  0.047732  0.047495 -0.002335      1.000000
 -0.002358  0.000000  0.048214      1.000000
  0.045374  0.000000  0.045879      1.000000
 -0.002358  0.047495  0.048214      1.000000
  0.045374  0.047495  0.045879      1.000000
 
 TETIRR: Found     24 inequivalent tetrahedra from       48
 
 Subroutine IBZKPT_HF returns following result:
 ==============================================
 
 Found      8 k-points in 1st BZ
 the following      8 k-points will be used (e.g. in the exchange kernel)
 Following reciprocal coordinates:   # in IRBZ
  0.000000  0.000000  0.000000    0.12500000   1 t-inv F
  0.500000  0.000000  0.000000    0.12500000   2 t-inv F
  0.000000  0.500000  0.000000    0.12500000   3 t-inv F
  0.500000  0.500000  0.000000    0.12500000   4 t-inv F
  0.000000  0.000000  0.500000    0.12500000   5 t-inv F
  0.500000  0.000000  0.500000    0.12500000   6 t-inv F
  0.000000  0.500000  0.500000    0.12500000   7 t-inv F
  0.500000  0.500000  0.500000    0.12500000   8 t-inv F


--------------------------------------------------------------------------------------------------------




 Dimension of arrays:
   k-points           NKPTS =      8   k-points in BZ     NKDIM =      8   number of bands    NBANDS=    512
   number of dos      NEDOS =    301   number of ions     NIONS =     64
   non local maximal  LDIM  =      6   non local SUM 2l+1 LMDIM =     18
   total plane-waves  NPLWV = 829440
   max r-space proj   IRMAX =      1   max aug-charges    IRDMAX=  22992
   dimension x,y,z NGX =    96 NGY =   96 NGZ =   90
   dimension x,y,z NGXF=   192 NGYF=  192 NGZF=  180
   support grid    NGXF=   192 NGYF=  192 NGZF=  180
   ions per type =              32  16  16
   NGX,Y,Z   is equivalent  to a cutoff of  15.18, 15.16, 14.38 a.u.
   NGXF,Y,Z  is equivalent  to a cutoff of  30.36, 30.32, 28.75 a.u.

 SYSTEM =  CuFeS2                                  
 POSCAR =  Fe16 Cu16 S32                           

 Startparameter for this run:
   NWRITE =      2    write-flag & timer
   PREC   = accura    normal or accurate (medium, high low for compatibility)
   ISTART =      0    job   : 0-new  1-cont  2-samecut
   ICHARG =      1    charge: 1-file 2-atom 10-const
   ISPIN  =      2    spin polarized calculation?
   LNONCOLLINEAR =      F non collinear calculations
   LSORBIT =      F    spin-orbit coupling
   INIWAV =      1    electr: 0-lowe 1-rand  2-diag
   LASPH  =      F    aspherical Exc in radial PAW
   METAGGA=      F    non-selfconsistent MetaGGA calc.

 Electronic Relaxation 1
   ENCUT  =  700.0 eV  51.45 Ry    7.17 a.u.  22.68 22.71 22.45*2*pi/ulx,y,z
   ENINI  =  700.0     initial cutoff
   ENAUG  =  758.2 eV  augmentation charge cutoff
   NELM   =    500;   NELMIN=  2; NELMDL=  0     # of ELM steps 
   EDIFF  = 0.1E-07   stopping-criterion for ELM
   LREAL  =      F    real-space projection
   NLSPLINE    = F    spline interpolate recip. space projectors
   LCOMPAT=      F    compatible to vasp.4.4
   GGA_COMPAT  = T    GGA compatible to vasp.4.4-vasp.4.6
   LMAXPAW     = -100 max onsite density
   LMAXMIX     =    4 max onsite mixed and CHGCAR
   VOSKOWN=      0    Vosko Wilk Nusair interpolation
   ROPT   =    0.00000   0.00000   0.00000
 Ionic relaxation
   EDIFFG = -.1E-04   stopping-criterion for IOM
   NSW    =      0    number of steps for IOM
   NBLOCK =      1;   KBLOCK =      1    inner block; outer block 
   IBRION =     -1    ionic relax: 0-MD 1-quasi-New 2-CG
   NFREE  =      0    steps in history (QN), initial steepest desc. (CG)
   ISIF   =      2    stress and relaxation
   IWAVPR =     10    prediction:  0-non 1-charg 2-wave 3-comb
   ISYM   =      2    0-nonsym 1-usesym 2-fastsym
   LCORR  =      T    Harris-Foulkes like correction to forces

   POTIM  = 0.5000    time-step for ionic-motion
   TEIN   =    0.0    initial temperature
   TEBEG  =    0.0;   TEEND  =   0.0 temperature during run
   SMASS  =  -3.00    Nose mass-parameter (am)
   estimated Nose-frequenzy (Omega)   =  0.10E-29 period in steps =****** mass=  -0.253E-26a.u.
   SCALEE = 1.0000    scale energy and forces
   NPACO  =    256;   APACO  = 16.0  distance and # of slots for P.C.
   PSTRESS=    0.0 pullay stress

  Mass of Ions in am
   POMASS =  32.07 63.55 55.85
  Ionic Valenz
   ZVAL   =   6.00 17.00 14.00
  Atomic Wigner-Seitz radii
   RWIGS  =  -1.00 -1.00 -1.00
  virtual crystal weights 
   VCA    =   1.00  1.00  1.00
   NELECT =     688.0000    total number of electrons
   NUPDOWN=      -1.0000    fix difference up-down

 DOS related values:
   EMIN   =  10.00;   EMAX   =-10.00  energy-range for DOS
   EFERMI =   0.00
   ISMEAR =    -5;   SIGMA  =   0.03  broadening in eV -4-tet -1-fermi 0-gaus

 Electronic relaxation 2 (details)
   IALGO  =     38    algorithm
   LDIAG  =      T    sub-space diagonalisation (order eigenvalues)
   LSUBROT=      F    optimize rotation matrix (better conditioning)
   TURBO    =      0    0=normal 1=particle mesh
   IRESTART =      0    0=no restart 2=restart with 2 vectors
   NREBOOT  =      0    no. of reboots
   NMIN     =      0    reboot dimension
   EREF     =   0.00    reference energy to select bands
   IMIX   =      4    mixing-type and parameters
     AMIX     =   0.40;   BMIX     =  1.00
     AMIX_MAG =   1.60;   BMIX_MAG =  1.00
     AMIN     =   0.10
     WC   =   100.;   INIMIX=   1;  MIXPRE=   1;  MAXMIX= -45

 Intra band minimization:
   WEIMIN = 0.0000     energy-eigenvalue tresh-hold
   EBREAK =  0.49E-11  absolut break condition
   DEPER  =   0.30     relativ break condition  

   TIME   =   0.40     timestep for ELM

  volume/ion in A,a.u.               =      17.91       120.88
  Fermi-wavevector in a.u.,A,eV,Ry     =   1.380904  2.609530 25.944885  1.906895
  Thomas-Fermi vector in A             =   2.505738
 
 Write flags
   LWAVE        =      T    write WAVECAR
   LDOWNSAMPLE  =      F    k-point downsampling of WAVECAR
   LCHARG       =      T    write CHGCAR
   LVTOT        =      F    write LOCPOT, total local potential
   LVHAR        =      F    write LOCPOT, Hartree potential only
   LELF         =      F    write electronic localiz. function (ELF)
   LORBIT       =     11    0 simple, 1 ext, 2 COOP (PROOUT), +10 PAW based schemes


 Dipole corrections
   LMONO  =      F    monopole corrections only (constant potential shift)
   LDIPOL =      F    correct potential (dipole corrections)
   IDIPOL =      0    1-x, 2-y, 3-z, 4-all directions 
   EPSILON=  1.0000000 bulk dielectric constant

 LDA+U is selected, type is set to LDAUTYPE =  2
   angular momentum for each species LDAUL =     2    2    2
   U (eV)           for each species LDAUU =   0.0  0.1  4.7
   J (eV)           for each species LDAUJ =   0.0  0.0  0.0
 Exchange correlation treatment:
   GGA     =    PS    GGA type
   LEXCH   =    14    internal setting for exchange type
   VOSKOWN=      0    Vosko Wilk Nusair interpolation
   LHFCALC =     F    Hartree Fock is set to
   LHFONE  =     F    Hartree Fock one center treatment
   AEXX    =    0.0000 exact exchange contribution

 Linear response parameters
   LEPSILON=     F    determine dielectric tensor
   LRPA    =     F    only Hartree local field effects (RPA)
   LNABLA  =     F    use nabla operator in PAW spheres
   LVEL    =     F    velocity operator in full k-point grid
   LINTERFAST=   F  fast interpolation
   KINTER  =     0    interpolate to denser k-point grid
   CSHIFT  =0.1000    complex shift for real part using Kramers Kronig
   OMEGAMAX=  -1.0    maximum frequency
   DEG_THRESHOLD= 0.2000000E-02 threshold for treating states as degnerate
   RTIME   =   -0.100 relaxation time in fs
  (WPLASMAI=    0.000 imaginary part of plasma frequency in eV, 0.658/RTIME)
   DFIELD  = 0.0000000 0.0000000 0.0000000 field for delta impulse in time
 
 Orbital magnetization related:
   ORBITALMAG=     F  switch on orbital magnetization
   LCHIMAG   =     F  perturbation theory with respect to B field
   DQ        =  0.001000  dq finite difference perturbation B field
   LLRAUG    =     F  two centre corrections for induced B field

 PEAD related settings:
   LPEAD      =     T    switch on PEAD
   IPEAD      =     4    finite difference order for dpsi/dk
   LCALCPOL   =     T    calculate macroscopic polarization
   LCALCEPS   =     F    calculate dielectric tensor
   EFIELD_PEAD=    0.0000    0.0000    0.0000
   SKIP_EDOTP =     F
   LRPA       =     F
   SKIP_SCF   =     F


--------------------------------------------------------------------------------------------------------


 Static calculation
 charge density and potential will be updated during run
 spin polarized calculation
 Variant of blocked Davidson
 Davidson routine will perform the subspace rotation
 perform sub-space diagonalisation
    after iterative eigenvector-optimisation
 modified Broyden-mixing scheme, WC =      100.0
 initial mixing is a Kerker type mixing with AMIX =  0.4000 and BMIX =      1.0000
 Hartree-type preconditioning will be used
 using additional bands          168
 reciprocal scheme for non local part
 use partial core corrections
 calculate Harris-corrections to forces 
   (improved forces if not selfconsistent)
 use gradient corrections 
 use of overlap-Matrix (Vanderbilt PP)
 Fermi weights with tetrahedron method with Bloechl corrections


--------------------------------------------------------------------------------------------------------


  energy-cutoff  :      700.00
  volume of cell :     1146.36
      direct lattice vectors                 reciprocal lattice vectors
    10.500240000  0.000000000  0.513586000     0.095464304  0.000000000 -0.004669334
     0.000000000 10.527518000  0.000000000     0.000000000  0.094989151  0.000000000
     0.508454000  0.000000000 10.395316000    -0.004716464  0.000000000  0.096427863

  length of vectors
    10.512792713 10.527518000 10.407743281     0.095578429  0.094989151  0.096543139


 
 k-points in units of 2pi/SCALE and weight: Automatic mesh                          
   0.00000000  0.00000000  0.00000000       0.125
   0.04773215  0.00000000 -0.00233467       0.125
   0.00000000  0.04749458  0.00000000       0.125
   0.04773215  0.04749458 -0.00233467       0.125
  -0.00235823  0.00000000  0.04821393       0.125
   0.04537392  0.00000000  0.04587926       0.125
  -0.00235823  0.04749458  0.04821393       0.125
   0.04537392  0.04749458  0.04587926       0.125
 
 k-points in reciprocal lattice and weights: Automatic mesh                          
   0.00000000  0.00000000  0.00000000       0.125
   0.50000000  0.00000000  0.00000000       0.125
   0.00000000  0.50000000  0.00000000       0.125
   0.50000000  0.50000000  0.00000000       0.125
   0.00000000  0.00000000  0.50000000       0.125
   0.50000000  0.00000000  0.50000000       0.125
   0.00000000  0.50000000  0.50000000       0.125
   0.50000000  0.50000000  0.50000000       0.125
 
 position of ions in fractional coordinates (direct lattice) 
   0.12643100  0.11873000  0.12592800
   0.62643100  0.11873000  0.12592800
   0.12643100  0.61873000  0.12592800
   0.62643100  0.61873000  0.12592800
   0.37356900  0.36873000  0.12407200
   0.87356900  0.36873000  0.12407200
   0.37356900  0.86873000  0.12407200
   0.87356900  0.86873000  0.12407200
   0.12500000  0.37024600  0.87500000
   0.62500000  0.37024600  0.87500000
   0.12500000  0.87024600  0.87500000
   0.62500000  0.87024600  0.87500000
   0.37500000  0.12182000  0.87500000
   0.87500000  0.12182000  0.87500000
   0.37500000  0.62182000  0.87500000
   0.87500000  0.62182000  0.87500000
   0.12356900  0.11873000  0.62407200
   0.62356900  0.11873000  0.62407200
   0.12356900  0.61873000  0.62407200
   0.62356900  0.61873000  0.62407200
   0.37643100  0.36873000  0.62592800
   0.87643100  0.36873000  0.62592800
   0.37643100  0.86873000  0.62592800
   0.87643100  0.86873000  0.62592800
   0.37500000  0.12024600  0.37500000
   0.87500000  0.12024600  0.37500000
   0.37500000  0.62024600  0.37500000
   0.87500000  0.62024600  0.37500000
   0.12500000  0.37182000  0.37500000
   0.62500000  0.37182000  0.37500000
   0.12500000  0.87182000  0.37500000
   0.62500000  0.87182000  0.37500000
   0.99772800  0.00519000  0.50001000
   0.49772800  0.00519000  0.50001000
   0.99772800  0.50519000  0.50001000
   0.49772800  0.50519000  0.50001000
   0.25227200  0.00519000  0.24999000
   0.75227200  0.00519000  0.24999000
   0.25227200  0.50519000  0.24999000
   0.75227200  0.50519000  0.24999000
   0.24772800  0.25519000  0.00001000
   0.74772800  0.25519000  0.00001000
   0.24772800  0.75519000  0.00001000
   0.74772800  0.75519000  0.00001000
   0.00227200  0.25519000  0.74999000
   0.50227200  0.25519000  0.74999000
   0.00227200  0.75519000  0.74999000
   0.50227200  0.75519000  0.74999000
   0.99868000  0.00504700  0.00074800
   0.49868000  0.00504700  0.00074800
   0.99868000  0.50504700  0.00074800
   0.49868000  0.50504700  0.00074800
   0.25132000  0.00504700  0.74925200
   0.75132000  0.00504700  0.74925200
   0.25132000  0.50504700  0.74925200
   0.75132000  0.50504700  0.74925200
   0.24868000  0.25504700  0.50074800
   0.74868000  0.25504700  0.50074800
   0.24868000  0.75504700  0.50074800
   0.74868000  0.75504700  0.50074800
   0.00132000  0.25504700  0.24925200
   0.50132000  0.25504700  0.24925200
   0.00132000  0.75504700  0.24925200
   0.50132000  0.75504700  0.24925200
 
 position of ions in cartesian coordinates  (Angst):
   1.39158444  1.24993221  1.37399454
   6.64170444  1.24993221  1.63078754
   1.39158444  6.51369121  1.37399454
   6.64170444  6.51369121  1.63078754
   3.98564906  3.88181171  1.48162746
   9.23576906  3.88181171  1.73842046
   3.98564906  9.14557071  1.48162746
   9.23576906  9.14557071  1.73842046
   1.75742725  3.89777143  9.16009975
   7.00754725  3.89777143  9.41689275
   1.75742725  9.16153043  9.16009975
   7.00754725  9.16153043  9.41689275
   4.38248725  1.28246224  9.28849625
   9.63260725  1.28246224  9.54528925
   4.38248725  6.54622124  9.28849625
   9.63260725  6.54622124  9.54528925
   1.61481606  1.24993221  6.55088896
   6.86493606  1.24993221  6.80768196
   1.61481606  6.51369121  6.55088896
   6.86493606  6.51369121  6.80768196
   4.27087144  3.88181171  6.70004904
   9.52099144  3.88181171  6.95684204
   4.27087144  9.14557071  6.70004904
   9.52099144  9.14557071  6.95684204
   4.12826025  1.26589193  4.09083825
   9.37838025  1.26589193  4.34763125
   4.12826025  6.52965093  4.09083825
   9.37838025  6.52965093  4.34763125
   1.50320025  3.91434174  3.96244175
   6.75332025  3.91434174  4.21923475
   1.50320025  9.17810074  3.96244175
   6.75332025  9.17810074  4.21923475
  10.73061554  0.05463782  5.71018109
   5.48049554  0.05463782  5.45338809
  10.73061554  5.31839682  5.71018109
   5.48049554  5.31839682  5.45338809
   2.77602496  0.05463782  2.72828841
   8.02614496  0.05463782  2.98508141
   2.77602496  5.31839682  2.72828841
   8.02614496  5.31839682  2.98508141
   2.60120854  2.68651732  0.12733359
   7.85132854  2.68651732  0.38412659
   2.60120854  7.95027632  0.12733359
   7.85132854  7.95027632  0.38412659
   0.40519196  2.68651732  7.79754991
   5.65531196  2.68651732  8.05434291
   0.40519196  7.95027632  7.79754991
   5.65531196  7.95027632  8.05434291
  10.48676001  0.05313238  0.52068376
   5.23664001  0.05313238  0.26389076
  10.48676001  5.31689138  0.52068376
   5.23664001  5.31689138  0.26389076
   3.01988049  0.05313238  7.91778574
   8.27000049  0.05313238  8.17457874
   3.01988049  5.31689138  7.91778574
   8.27000049  5.31689138  8.17457874
   2.86580701  2.68501188  5.33315226
   8.11592701  2.68501188  5.58994526
   2.86580701  7.94877088  5.33315226
   8.11592701  7.94877088  5.58994526
   0.14059349  2.68501188  2.59173124
   5.39071349  2.68501188  2.84852424
   0.14059349  7.94877088  2.59173124
   5.39071349  7.94877088  2.84852424
 


--------------------------------------------------------------------------------------------------------


 k-point  1 :   0.0000 0.0000 0.0000  plane waves:   48239
 k-point  2 :   0.5000 0.0000 0.0000  plane waves:   48236
 k-point  3 :   0.0000 0.5000 0.0000  plane waves:   48298
 k-point  4 :   0.5000 0.5000 0.0000  plane waves:   48228
 k-point  5 :   0.0000 0.0000 0.5000  plane waves:   48186
 k-point  6 :   0.5000 0.0000 0.5000  plane waves:   48254
 k-point  7 :   0.0000 0.5000 0.5000  plane waves:   48168
 k-point  8 :   0.5000 0.5000 0.5000  plane waves:   48184

 maximum and minimum number of plane-waves per node :     48298    48168

 maximum number of plane-waves:     48298
 maximum index in each direction: 
   IXMAX=   22   IYMAX=   22   IZMAX=   22
   IXMIN=  -23   IYMIN=  -23   IZMIN=  -22


 serial   3D FFT for wavefunctions
 parallel 3D FFT for charge:
    minimum data exchange during FFTs selected (reduces bandwidth)


 total amount of memory used by VASP MPI-rank0   348353. kBytes
=======================================================================

   base      :      30000. kBytes
   nonl-proj :     216760. kBytes
   fftplans  :       4588. kBytes
   grid      :      69719. kBytes
   one-center:       1990. kBytes
   wavefun   :      25296. kBytes
 
     INWAV:  cpu time    0.0001: real time    0.0002
 Broyden mixing: mesh for mixing (old mesh)
   NGX = 45   NGY = 45   NGZ = 45
  (NGX  =192   NGY  =192   NGZ  =180)
  gives a total of  91125 points

 initial charge density was supplied:
 number of electron     687.9999924 magnetization       0.0000000
 keeping initial charge density in first step


--------------------------------------------------------------------------------------------------------


 Maximum index for augmentation-charges          897 (set IRDMAX)


--------------------------------------------------------------------------------------------------------


 First call to EWALD:  gamma=   0.169
 Maximum number of real-space cells 3x 3x 3
 Maximum number of reciprocal cells 3x 3x 3

    FEWALD:  cpu time    0.0027: real time    0.0027


--------------------------------------- Iteration      1(   1)  ---------------------------------------


    POTLOK:  cpu time    0.3551: real time    0.3879
    SETDIJ:  cpu time    0.0147: real time    0.0148
     EDDAV:  cpu time   83.6408: real time   84.3874
 BZINTS: Fermi energy: 14.945613;688.000000 electrons
         Band energy:***********;  BLOECHL correction: -0.017894
       DOS:  cpu time    0.0414: real time    0.0416
    --------------------------------------------
      LOOP:  cpu time   84.0521: real time   84.8317

 eigenvalue-minimisations  : 16384
 total energy-change (2. order) : 0.6050286E+04  (-0.5165272E+05)
 number of electron     687.9999924 magnetization       0.0000000
 augmentation part      687.9999924 magnetization       0.0000000

 Free energy of the ion-electron system (eV)
  ---------------------------------------------------
  alpha Z        PSCENC =      2364.99897384
  Ewald energy   TEWEN  =    -62584.62482140
  -Hartree energ DENC   =    -42831.57492764
  -exchange      EXHF   =         0.00000000
  -V(xc)+E(xc)   XCENC  =      3284.61100012
  PAW double counting   =    112137.10810081  -115828.64214528
  entropy T*S    EENTRO =         0.00000000
  eigenvalues    EBANDS =     -4511.65514420
  atomic energy  EATOM  =    114020.06510763
  Solvation  Ediel_sol  =         0.00000000
  ---------------------------------------------------
  free energy    TOTEN  =      6050.28614388 eV

  energy without entropy =     6050.28614388  energy(sigma->0) =     6050.28614388


--------------------------------------------------------------------------------------------------------




--------------------------------------- Iteration      1(   2)  ---------------------------------------


     EDDAV:  cpu time  106.2919: real time  107.0785
 BZINTS: Fermi energy:  5.568988;688.000000 electrons
         Band energy:***********;  BLOECHL correction:  0.000000
       DOS:  cpu time    0.0080: real time    0.0081
    --------------------------------------------
      LOOP:  cpu time  106.2999: real time  107.0866

 eigenvalue-minimisations  : 18944
 total energy-change (2. order) :-0.6137961E+04  (-0.6028234E+04)
 number of electron     687.9999924 magnetization       0.0000000
 augmentation part      687.9999924 magnetization       0.0000000

 Free energy of the ion-electron system (eV)
  ---------------------------------------------------
  alpha Z        PSCENC =      2364.99897384
  Ewald energy   TEWEN  =    -62584.62482140
  -Hartree energ DENC   =    -42831.57492764
  -exchange      EXHF   =         0.00000000
  -V(xc)+E(xc)   XCENC  =      3284.61100012
  PAW double counting   =    112137.10810081  -115828.64214528
  entropy T*S    EENTRO =         0.00000000
  eigenvalues    EBANDS =    -10649.61624148
  atomic energy  EATOM  =    114020.06510763
  Solvation  Ediel_sol  =         0.00000000
  ---------------------------------------------------
  free energy    TOTEN  =       -87.67495340 eV

  energy without entropy =      -87.67495340  energy(sigma->0) =      -87.67495340


--------------------------------------------------------------------------------------------------------




--------------------------------------- Iteration      1(   3)  ---------------------------------------


     EDDAV:  cpu time  141.0792: real time  142.0699
 BZINTS: Fermi energy:  5.111705;688.000000 electrons
         Band energy:***********;  BLOECHL correction:  0.000000
       DOS:  cpu time    0.0062: real time    0.0062
    --------------------------------------------
      LOOP:  cpu time  141.0854: real time  142.0762

 eigenvalue-minimisations  : 21760
 total energy-change (2. order) :-0.2387286E+03  (-0.2380313E+03)
 number of electron     687.9999924 magnetization       0.0000000
 augmentation part      687.9999924 magnetization       0.0000000

 Free energy of the ion-electron system (eV)
  ---------------------------------------------------
  alpha Z        PSCENC =      2364.99897384
  Ewald energy   TEWEN  =    -62584.62482140
  -Hartree energ DENC   =    -42831.57492764
  -exchange      EXHF   =         0.00000000
  -V(xc)+E(xc)   XCENC  =      3284.61100012
  PAW double counting   =    112137.10810081  -115828.64214528
  entropy T*S    EENTRO =         0.00000000
  eigenvalues    EBANDS =    -10888.34480884
  atomic energy  EATOM  =    114020.06510763
  Solvation  Ediel_sol  =         0.00000000
  ---------------------------------------------------
  free energy    TOTEN  =      -326.40352076 eV

  energy without entropy =     -326.40352076  energy(sigma->0) =     -326.40352076


--------------------------------------------------------------------------------------------------------




--------------------------------------- Iteration      1(   4)  ---------------------------------------


     EDDAV:  cpu time  146.1623: real time  147.1630
 BZINTS: Fermi energy:  5.005999;688.000000 electrons
         Band energy:***********;  BLOECHL correction:  0.000000
       DOS:  cpu time    0.0061: real time    0.0062
    --------------------------------------------
      LOOP:  cpu time  146.1684: real time  147.1692

 eigenvalue-minimisations  : 21504
 total energy-change (2. order) :-0.3334474E+01  (-0.3334318E+01)
 number of electron     687.9999924 magnetization       0.0000000
 augmentation part      687.9999924 magnetization       0.0000000

 Free energy of the ion-electron system (eV)
  ---------------------------------------------------
  alpha Z        PSCENC =      2364.99897384
  Ewald energy   TEWEN  =    -62584.62482140
  -Hartree energ DENC   =    -42831.57492764
  -exchange      EXHF   =         0.00000000
  -V(xc)+E(xc)   XCENC  =      3284.61100012
  PAW double counting   =    112137.10810081  -115828.64214528
  entropy T*S    EENTRO =         0.00000000
  eigenvalues    EBANDS =    -10891.67928272
  atomic energy  EATOM  =    114020.06510763
  Solvation  Ediel_sol  =         0.00000000
  ---------------------------------------------------
  free energy    TOTEN  =      -329.73799464 eV

  energy without entropy =     -329.73799464  energy(sigma->0) =     -329.73799464


--------------------------------------------------------------------------------------------------------




--------------------------------------- Iteration      1(   5)  ---------------------------------------


     EDDAV:  cpu time  130.2962: real time  131.2161
 BZINTS: Fermi energy:  4.965892;688.000000 electrons
         Band energy:***********;  BLOECHL correction:  0.000000
       DOS:  cpu time    0.0060: real time    0.0061
    CHARGE:  cpu time    1.4082: real time    1.4170
    MIXING:  cpu time    0.0071: real time    0.0072
    --------------------------------------------
      LOOP:  cpu time  131.7175: real time  132.6463

 eigenvalue-minimisations  : 20480
 total energy-change (2. order) :-0.1038127E+00  (-0.1038123E+00)
 number of electron     688.0000094 magnetization       0.0000000
 augmentation part      282.9815685 magnetization       0.0000000

 Broyden mixing:
  rms(total) = 0.12813E+01    rms(broyden)= 0.12811E+01
  rms(prec ) = 0.14367E+01
  weight for this iteration     100.00

 Free energy of the ion-electron system (eV)
  ---------------------------------------------------
  alpha Z        PSCENC =      2364.99897384
  Ewald energy   TEWEN  =    -62584.62482140
  -Hartree energ DENC   =    -42831.57492764
  -exchange      EXHF   =         0.00000000
  -V(xc)+E(xc)   XCENC  =      3284.61100012
  PAW double counting   =    112137.10810081  -115828.64214528
  entropy T*S    EENTRO =         0.00000000
  eigenvalues    EBANDS =    -10891.78309539
  atomic energy  EATOM  =    114020.06510763
  Solvation  Ediel_sol  =         0.00000000
  ---------------------------------------------------
  free energy    TOTEN  =      -329.84180731 eV

  energy without entropy =     -329.84180731  energy(sigma->0) =     -329.84180731


--------------------------------------------------------------------------------------------------------




--------------------------------------- Iteration      1(   6)  ---------------------------------------


    POTLOK:  cpu time    0.1204: real time    0.1213
    SETDIJ:  cpu time    0.0127: real time    0.0127
     EDDAV:  cpu time  200.2531: real time  201.5836
 BZINTS: Fermi energy:  5.055894;688.000000 electrons
         Band energy:***********;  BLOECHL correction:  0.000000
       DOS:  cpu time    0.0052: real time    0.0052
    CHARGE:  cpu time    1.4052: real time    1.4150
    MIXING:  cpu time    0.0024: real time    0.0138
    --------------------------------------------
      LOOP:  cpu time  201.7989: real time  203.1517

 eigenvalue-minimisations  : 27648
 total energy-change (2. order) : 0.2054535E+01  (-0.2399687E+00)
 number of electron     688.0000094 magnetization       0.0000000
 augmentation part      281.7487648 magnetization       0.0000000

 Broyden mixing:
  rms(total) = 0.70569E+00    rms(broyden)= 0.70568E+00
  rms(prec ) = 0.78933E+00
  weight for this iteration     100.00

 eigenvalues of (default mixing * dielectric matrix)
  average eigenvalue GAMMA=   0.8448
  0.8448

 Free energy of the ion-electron system (eV)
  ---------------------------------------------------
  alpha Z        PSCENC =      2364.99897384
  Ewald energy   TEWEN  =    -62584.62482140
  -Hartree energ DENC   =    -42908.02027410
  -exchange      EXHF   =         0.00000000
  -V(xc)+E(xc)   XCENC  =      3287.05135790
  PAW double counting   =    112461.57791566  -116162.00777059
  entropy T*S    EENTRO =         0.00000000
  eigenvalues    EBANDS =    -10806.82776108
  atomic energy  EATOM  =    114020.06510763
  Solvation  Ediel_sol  =         0.00000000
  ---------------------------------------------------
  free energy    TOTEN  =      -327.78727214 eV

  energy without entropy =     -327.78727214  energy(sigma->0) =     -327.78727214


--------------------------------------------------------------------------------------------------------




--------------------------------------- Iteration      1(   7)  ---------------------------------------


    POTLOK:  cpu time    0.1185: real time    0.1213
    SETDIJ:  cpu time    0.0125: real time    0.0126
     EDDAV:  cpu time  134.5125: real time  135.4555
 BZINTS: Fermi energy:  4.935499;688.000000 electrons
         Band energy:***********;  BLOECHL correction:  0.000000
       DOS:  cpu time    0.0060: real time    0.0060
    CHARGE:  cpu time    1.4042: real time    1.4139
    MIXING:  cpu time    0.0017: real time    0.0040
    --------------------------------------------
      LOOP:  cpu time  136.0554: real time  137.0132

 eigenvalue-minimisations  : 21248
 total energy-change (2. order) : 0.5137384E+00  (-0.2340290E+00)
 number of electron     688.0000094 magnetization       0.0000000
 augmentation part      282.6101605 magnetization       0.0000000

 Broyden mixing:
  rms(total) = 0.49731E+00    rms(broyden)= 0.49730E+00
  rms(prec ) = 0.56364E+00
  weight for this iteration     100.00

 eigenvalues of (default mixing * dielectric matrix)
  average eigenvalue GAMMA=   1.0762
  1.5675  0.5848

 Free energy of the ion-electron system (eV)
  ---------------------------------------------------
  alpha Z        PSCENC =      2364.99897384
  Ewald energy   TEWEN  =    -62584.62482140
  -Hartree energ DENC   =    -42846.48925074
  -exchange      EXHF   =         0.00000000
  -V(xc)+E(xc)   XCENC  =      3285.46718409
  PAW double counting   =    112308.47666441  -115997.01415431
  entropy T*S    EENTRO =         0.00000000
  eigenvalues    EBANDS =    -10878.15323730
  atomic energy  EATOM  =    114020.06510763
  Solvation  Ediel_sol  =         0.00000000
  ---------------------------------------------------
  free energy    TOTEN  =      -327.27353377 eV

  energy without entropy =     -327.27353377  energy(sigma->0) =     -327.27353377


--------------------------------------------------------------------------------------------------------




--------------------------------------- Iteration      1(   8)  ---------------------------------------


    POTLOK:  cpu time    0.1202: real time    0.1218
    SETDIJ:  cpu time    0.0125: real time    0.0125
     EDDAV:  cpu time  171.0394: real time  172.1821
 BZINTS: Fermi energy:  5.050801;688.000000 electrons
         Band energy:***********;  BLOECHL correction:  0.000000
       DOS:  cpu time    0.0051: real time    0.0052
    CHARGE:  cpu time    1.4038: real time    1.4136
    MIXING:  cpu time    0.0013: real time    0.0013
    --------------------------------------------
      LOOP:  cpu time  172.5824: real time  173.7365

 eigenvalue-minimisations  : 23808
 total energy-change (2. order) : 0.9823574E-01  (-0.2774526E+00)
 number of electron     688.0000094 magnetization       0.0000000
 augmentation part      282.4748353 magnetization       0.0000000

 Broyden mixing:
  rms(total) = 0.47427E+00    rms(broyden)= 0.47425E+00
  rms(prec ) = 0.55629E+00
  weight for this iteration     100.00

 eigenvalues of (default mixing * dielectric matrix)
  average eigenvalue GAMMA=   0.8536
  1.6903  0.5622  0.3081

 Free energy of the ion-electron system (eV)
  ---------------------------------------------------
  alpha Z        PSCENC =      2364.99897384
  Ewald energy   TEWEN  =    -62584.62482140
  -Hartree energ DENC   =    -42881.41613280
  -exchange      EXHF   =         0.00000000
  -V(xc)+E(xc)   XCENC  =      3286.97119801
  PAW double counting   =    112283.15686115  -115975.15896832
  entropy T*S    EENTRO =         0.00000000
  eigenvalues    EBANDS =    -10841.16751615
  atomic energy  EATOM  =    114020.06510763
  Solvation  Ediel_sol  =         0.00000000
  ---------------------------------------------------
  free energy    TOTEN  =      -327.17529803 eV

  energy without entropy =     -327.17529803  energy(sigma->0) =     -327.17529803


--------------------------------------------------------------------------------------------------------




--------------------------------------- Iteration      1(   9)  ---------------------------------------


    POTLOK:  cpu time    0.1209: real time    0.1218
    SETDIJ:  cpu time    0.0127: real time    0.0128
     EDDAV:  cpu time  128.6933: real time  129.5937
 BZINTS: Fermi energy:  4.959926;688.000000 electrons
         Band energy:***********;  BLOECHL correction:  0.000000
       DOS:  cpu time    0.0060: real time    0.0060
    CHARGE:  cpu time    1.4027: real time    1.4128
    MIXING:  cpu time    0.0015: real time    0.0313
    --------------------------------------------
      LOOP:  cpu time  130.2372: real time  131.1783

 eigenvalue-minimisations  : 20480
 total energy-change (2. order) : 0.8321921E-01  (-0.7860338E-01)
 number of electron     688.0000094 magnetization       0.0000000
 augmentation part      282.3009739 magnetization       0.0000000

 Broyden mixing:
  rms(total) = 0.13526E+00    rms(broyden)= 0.13525E+00
  rms(prec ) = 0.13995E+00
  weight for this iteration     100.00

 eigenvalues of (default mixing * dielectric matrix)
  average eigenvalue GAMMA=   0.8745
  1.9463  0.7167  0.4859  0.3492

 Free energy of the ion-electron system (eV)
  ---------------------------------------------------
  alpha Z        PSCENC =      2364.99897384
  Ewald energy   TEWEN  =    -62584.62482140
  -Hartree energ DENC   =    -42880.18413972
  -exchange      EXHF   =         0.00000000
  -V(xc)+E(xc)   XCENC  =      3286.53651746
  PAW double counting   =    112274.85355159  -115967.81150685
  entropy T*S    EENTRO =         0.00000000
  eigenvalues    EBANDS =    -10840.92576137
  atomic energy  EATOM  =    114020.06510763
  Solvation  Ediel_sol  =         0.00000000
  ---------------------------------------------------
  free energy    TOTEN  =      -327.09207882 eV

  energy without entropy =     -327.09207882  energy(sigma->0) =     -327.09207882


--------------------------------------------------------------------------------------------------------




--------------------------------------- Iteration      1(  10)  ---------------------------------------


    POTLOK:  cpu time    0.1203: real time    0.1212
    SETDIJ:  cpu time    0.0127: real time    0.0128
     EDDAV:  cpu time  153.9175: real time  154.9564
 BZINTS: Fermi energy:  4.960026;688.000000 electrons
         Band energy:***********;  BLOECHL correction:  0.000000
       DOS:  cpu time    0.0060: real time    0.0060
    CHARGE:  cpu time    1.3931: real time    1.4029
    MIXING:  cpu time    0.0016: real time    0.0016
    --------------------------------------------
      LOOP:  cpu time  155.4512: real time  156.5009

 eigenvalue-minimisations  : 22272
 total energy-change (2. order) :-0.2214746E-02  (-0.3393693E-02)
 number of electron     688.0000094 magnetization       0.0000000
 augmentation part      282.1993489 magnetization       0.0000000

 Broyden mixing:
  rms(total) = 0.79105E-01    rms(broyden)= 0.79104E-01
  rms(prec ) = 0.81904E-01
  weight for this iteration     100.00

 eigenvalues of (default mixing * dielectric matrix)
  average eigenvalue GAMMA=   0.9647
  1.7749  1.5125  0.6484  0.5526  0.3350

 Free energy of the ion-electron system (eV)
  ---------------------------------------------------
  alpha Z        PSCENC =      2364.99897384
  Ewald energy   TEWEN  =    -62584.62482140
  -Hartree energ DENC   =    -42884.17719528
  -exchange      EXHF   =         0.00000000
  -V(xc)+E(xc)   XCENC  =      3286.58558498
  PAW double counting   =    112265.30663099  -115958.40906923
  entropy T*S    EENTRO =         0.00000000
  eigenvalues    EBANDS =    -10836.83950511
  atomic energy  EATOM  =    114020.06510763
  Solvation  Ediel_sol  =         0.00000000
  ---------------------------------------------------
  free energy    TOTEN  =      -327.09429357 eV

  energy without entropy =     -327.09429357  energy(sigma->0) =     -327.09429357


--------------------------------------------------------------------------------------------------------




--------------------------------------- Iteration      1(  11)  ---------------------------------------


    POTLOK:  cpu time    0.1204: real time    0.1217
    SETDIJ:  cpu time    0.0126: real time    0.0126
     EDDAV:  cpu time  135.3896: real time  136.3333
 BZINTS: Fermi energy:  4.958614;688.000000 electrons
         Band energy:***********;  BLOECHL correction:  0.000000
       DOS:  cpu time    0.0060: real time    0.0060
    CHARGE:  cpu time    1.4048: real time    1.4151
    MIXING:  cpu time    0.0014: real time    0.0014
    --------------------------------------------
      LOOP:  cpu time  136.9348: real time  137.8902

 eigenvalue-minimisations  : 20736
 total energy-change (2. order) :-0.1981129E-02  (-0.1196672E-02)
 number of electron     688.0000094 magnetization       0.0000000
 augmentation part      282.2587190 magnetization       0.0000000

 Broyden mixing:
  rms(total) = 0.37265E-01    rms(broyden)= 0.37265E-01
  rms(prec ) = 0.37995E-01
  weight for this iteration     100.00

 eigenvalues of (default mixing * dielectric matrix)
  average eigenvalue GAMMA=   1.1138
  2.1312  2.1312  0.8228  0.6330  0.6330  0.3314

 Free energy of the ion-electron system (eV)
  ---------------------------------------------------
  alpha Z        PSCENC =      2364.99897384
  Ewald energy   TEWEN  =    -62584.62482140
  -Hartree energ DENC   =    -42880.57475461
  -exchange      EXHF   =         0.00000000
  -V(xc)+E(xc)   XCENC  =      3286.47369414
  PAW double counting   =    112236.70377368  -115928.94516566
  entropy T*S    EENTRO =         0.00000000
  eigenvalues    EBANDS =    -10841.19308232
  atomic energy  EATOM  =    114020.06510763
  Solvation  Ediel_sol  =         0.00000000
  ---------------------------------------------------
  free energy    TOTEN  =      -327.09627470 eV

  energy without entropy =     -327.09627470  energy(sigma->0) =     -327.09627470


--------------------------------------------------------------------------------------------------------




--------------------------------------- Iteration      1(  12)  ---------------------------------------


    POTLOK:  cpu time    0.1177: real time    0.1215
    SETDIJ:  cpu time    0.0127: real time    0.0128
     EDDAV:  cpu time  145.9430: real time  146.9462
 BZINTS: Fermi energy:  4.959497;688.000000 electrons
         Band energy:***********;  BLOECHL correction:  0.000000
       DOS:  cpu time    0.0059: real time    0.0059
    CHARGE:  cpu time    1.4149: real time    1.4250
    MIXING:  cpu time    0.0016: real time    0.0016
    --------------------------------------------
      LOOP:  cpu time  147.4959: real time  148.5129

 eigenvalue-minimisations  : 21504
 total energy-change (2. order) :-0.1562088E-02  (-0.5069057E-03)
 number of electron     688.0000094 magnetization       0.0000000
 augmentation part      282.2354167 magnetization       0.0000000

 Broyden mixing:
  rms(total) = 0.14412E-01    rms(broyden)= 0.14411E-01
  rms(prec ) = 0.15232E-01
  weight for this iteration     100.00

 eigenvalues of (default mixing * dielectric matrix)
  average eigenvalue GAMMA=   1.0951
  2.2142  2.2142  0.9595  0.3315  0.7088  0.6188  0.6188

 Free energy of the ion-electron system (eV)
  ---------------------------------------------------
  alpha Z        PSCENC =      2364.99897384
  Ewald energy   TEWEN  =    -62584.62482140
  -Hartree energ DENC   =    -42882.17271521
  -exchange      EXHF   =         0.00000000
  -V(xc)+E(xc)   XCENC  =      3286.52129976
  PAW double counting   =    112212.92910859  -115905.40262725
  entropy T*S    EENTRO =         0.00000000
  eigenvalues    EBANDS =    -10839.41216275
  atomic energy  EATOM  =    114020.06510763
  Solvation  Ediel_sol  =         0.00000000
  ---------------------------------------------------
  free energy    TOTEN  =      -327.09783678 eV

  energy without entropy =     -327.09783678  energy(sigma->0) =     -327.09783678


--------------------------------------------------------------------------------------------------------




--------------------------------------- Iteration      1(  13)  ---------------------------------------


    POTLOK:  cpu time    0.1206: real time    0.1217
    SETDIJ:  cpu time    0.0126: real time    0.0126
     EDDAV:  cpu time  123.9555: real time  124.8323
 BZINTS: Fermi energy:  4.959025;688.000000 electrons
         Band energy:***********;  BLOECHL correction:  0.000000
       DOS:  cpu time    0.0060: real time    0.0060
    CHARGE:  cpu time    1.4097: real time    1.4195
    MIXING:  cpu time    0.0016: real time    0.0016
    --------------------------------------------
      LOOP:  cpu time  125.5060: real time  126.3937

 eigenvalue-minimisations  : 19456
 total energy-change (2. order) :-0.2252996E-03  (-0.6194335E-04)
 number of electron     688.0000094 magnetization       0.0000000
 augmentation part      282.2496811 magnetization       0.0000000

 Broyden mixing:
  rms(total) = 0.91354E-02    rms(broyden)= 0.91352E-02
  rms(prec ) = 0.96391E-02
  weight for this iteration     100.00

 eigenvalues of (default mixing * dielectric matrix)
  average eigenvalue GAMMA=   1.1041
  2.2463  2.2463  1.0750  1.0750  0.3314  0.5934  0.5934  0.6719

 Free energy of the ion-electron system (eV)
  ---------------------------------------------------
  alpha Z        PSCENC =      2364.99897384
  Ewald energy   TEWEN  =    -62584.62482140
  -Hartree energ DENC   =    -42881.34574960
  -exchange      EXHF   =         0.00000000
  -V(xc)+E(xc)   XCENC  =      3286.50442018
  PAW double counting   =    112205.42413767  -115897.78475802
  entropy T*S    EENTRO =         0.00000000
  eigenvalues    EBANDS =    -10840.33537239
  atomic energy  EATOM  =    114020.06510763
  Solvation  Ediel_sol  =         0.00000000
  ---------------------------------------------------
  free energy    TOTEN  =      -327.09806208 eV

  energy without entropy =     -327.09806208  energy(sigma->0) =     -327.09806208


--------------------------------------------------------------------------------------------------------




--------------------------------------- Iteration      1(  14)  ---------------------------------------


    POTLOK:  cpu time    0.1208: real time    0.1216
    SETDIJ:  cpu time    0.0125: real time    0.0126
     EDDAV:  cpu time  157.8086: real time  158.8749
 BZINTS: Fermi energy:  4.958982;688.000000 electrons
         Band energy:***********;  BLOECHL correction:  0.000000
       DOS:  cpu time    0.0060: real time    0.0060
    CHARGE:  cpu time    1.4102: real time    1.4194
    MIXING:  cpu time    0.0017: real time    0.0017
    --------------------------------------------
      LOOP:  cpu time  159.3598: real time  160.4362

 eigenvalue-minimisations  : 22528
 total energy-change (2. order) :-0.1475176E-03  (-0.4082340E-04)
 number of electron     688.0000094 magnetization      -0.0000000
 augmentation part      282.2431830 magnetization      -0.0000000

 Broyden mixing:
  rms(total) = 0.48391E-02    rms(broyden)= 0.48388E-02
  rms(prec ) = 0.51073E-02
  weight for this iteration     100.00

 eigenvalues of (default mixing * dielectric matrix)
  average eigenvalue GAMMA=   1.1841
  2.4198  2.4198  1.4517  1.4517  0.3315  0.5967  0.5967  0.6945  0.6945

 Free energy of the ion-electron system (eV)
  ---------------------------------------------------
  alpha Z        PSCENC =      2364.99897384
  Ewald energy   TEWEN  =    -62584.62482140
  -Hartree energ DENC   =    -42881.66527511
  -exchange      EXHF   =         0.00000000
  -V(xc)+E(xc)   XCENC  =      3286.51025049
  PAW double counting   =    112201.18111895  -115893.63398606
  entropy T*S    EENTRO =         0.00000000
  eigenvalues    EBANDS =    -10839.92957795
  atomic energy  EATOM  =    114020.06510763
  Solvation  Ediel_sol  =         0.00000000
  ---------------------------------------------------
  free energy    TOTEN  =      -327.09820960 eV

  energy without entropy =     -327.09820960  energy(sigma->0) =     -327.09820960


--------------------------------------------------------------------------------------------------------




--------------------------------------- Iteration      1(  15)  ---------------------------------------


    POTLOK:  cpu time    0.1198: real time    0.1223
    SETDIJ:  cpu time    0.0129: real time    0.0130
     EDDAV:  cpu time  125.4776: real time  126.3636
 BZINTS: Fermi energy:  4.958870;688.000000 electrons
         Band energy:***********;  BLOECHL correction:  0.000000
       DOS:  cpu time    0.0060: real time    0.0060
    CHARGE:  cpu time    1.4102: real time    1.4197
    MIXING:  cpu time    0.0018: real time    0.0018
    --------------------------------------------
      LOOP:  cpu time  127.0283: real time  127.9263

 eigenvalue-minimisations  : 19712
 total energy-change (2. order) :-0.8027541E-04  (-0.2355232E-04)
 number of electron     688.0000094 magnetization       0.0000000
 augmentation part      282.2431439 magnetization       0.0000000

 Broyden mixing:
  rms(total) = 0.25033E-02    rms(broyden)= 0.25030E-02
  rms(prec ) = 0.27932E-02
  weight for this iteration     100.00

 eigenvalues of (default mixing * dielectric matrix)
  average eigenvalue GAMMA=   1.1943
  2.7477  2.3012  1.8401  1.0983  1.0983  0.3314  0.5933  0.5933  0.7098  0.6292

 Free energy of the ion-electron system (eV)
  ---------------------------------------------------
  alpha Z        PSCENC =      2364.99897384
  Ewald energy   TEWEN  =    -62584.62482140
  -Hartree energ DENC   =    -42881.63885901
  -exchange      EXHF   =         0.00000000
  -V(xc)+E(xc)   XCENC  =      3286.51195285
  PAW double counting   =    112198.50207423  -115890.97322147
  entropy T*S    EENTRO =         0.00000000
  eigenvalues    EBANDS =    -10839.93949655
  atomic energy  EATOM  =    114020.06510763
  Solvation  Ediel_sol  =         0.00000000
  ---------------------------------------------------
  free energy    TOTEN  =      -327.09828988 eV

  energy without entropy =     -327.09828988  energy(sigma->0) =     -327.09828988


--------------------------------------------------------------------------------------------------------




--------------------------------------- Iteration      1(  16)  ---------------------------------------


    POTLOK:  cpu time    0.1192: real time    0.1219
    SETDIJ:  cpu time    0.0126: real time    0.0126
     EDDAV:  cpu time  145.8113: real time  146.7883
 BZINTS: Fermi energy:  4.958779;688.000000 electrons
         Band energy:***********;  BLOECHL correction:  0.000000
       DOS:  cpu time    0.0060: real time    0.0060
    CHARGE:  cpu time    1.3961: real time    1.4060
    MIXING:  cpu time    0.0019: real time    0.0026
    --------------------------------------------
      LOOP:  cpu time  147.3471: real time  148.3375

 eigenvalue-minimisations  : 20992
 total energy-change (2. order) :-0.2120747E-04  (-0.5888652E-05)
 number of electron     688.0000094 magnetization      -0.0000000
 augmentation part      282.2454174 magnetization      -0.0000000

 Broyden mixing:
  rms(total) = 0.16041E-02    rms(broyden)= 0.16040E-02
  rms(prec ) = 0.16924E-02
  weight for this iteration     100.00

 eigenvalues of (default mixing * dielectric matrix)
  average eigenvalue GAMMA=   1.2345
  2.9156  2.2532  2.0249  1.3172  1.3172  0.3314  0.8992  0.5928  0.5928  0.7114
  0.6237

 Free energy of the ion-electron system (eV)
  ---------------------------------------------------
  alpha Z        PSCENC =      2364.99897384
  Ewald energy   TEWEN  =    -62584.62482140
  -Hartree energ DENC   =    -42881.55698814
  -exchange      EXHF   =         0.00000000
  -V(xc)+E(xc)   XCENC  =      3286.51163619
  PAW double counting   =    112197.60459250  -115890.06531680
  entropy T*S    EENTRO =         0.00000000
  eigenvalues    EBANDS =    -10840.03149491
  atomic energy  EATOM  =    114020.06510763
  Solvation  Ediel_sol  =         0.00000000
  ---------------------------------------------------
  free energy    TOTEN  =      -327.09831108 eV

  energy without entropy =     -327.09831108  energy(sigma->0) =     -327.09831108


--------------------------------------------------------------------------------------------------------




--------------------------------------- Iteration      1(  17)  ---------------------------------------


    POTLOK:  cpu time    0.1204: real time    0.1215
    SETDIJ:  cpu time    0.0125: real time    0.0126
     EDDAV:  cpu time  130.2899: real time  131.1867
 BZINTS: Fermi energy:  4.958691;688.000000 electrons
         Band energy:***********;  BLOECHL correction:  0.000000
       DOS:  cpu time    0.0060: real time    0.0061
    CHARGE:  cpu time    1.4090: real time    1.4186
    MIXING:  cpu time    0.0018: real time    0.0018
    --------------------------------------------
      LOOP:  cpu time  131.8397: real time  132.7473

 eigenvalue-minimisations  : 19968
 total energy-change (2. order) :-0.1464663E-04  (-0.6156371E-05)
 number of electron     688.0000094 magnetization      -0.0000000
 augmentation part      282.2455850 magnetization      -0.0000000

 Broyden mixing:
  rms(total) = 0.96238E-03    rms(broyden)= 0.96216E-03
  rms(prec ) = 0.10679E-02
  weight for this iteration     100.00

 eigenvalues of (default mixing * dielectric matrix)
  average eigenvalue GAMMA=   1.3369
  3.7390  2.3297  2.3297  1.5784  1.5784  0.3314  0.9356  0.5957  0.5957  0.7369
  0.6517  0.6410

 Free energy of the ion-electron system (eV)
  ---------------------------------------------------
  alpha Z        PSCENC =      2364.99897384
  Ewald energy   TEWEN  =    -62584.62482140
  -Hartree energ DENC   =    -42881.56387305
  -exchange      EXHF   =         0.00000000
  -V(xc)+E(xc)   XCENC  =      3286.51161293
  PAW double counting   =    112197.91476614  -115890.38175305
  entropy T*S    EENTRO =         0.00000000
  eigenvalues    EBANDS =    -10840.01833878
  atomic energy  EATOM  =    114020.06510763
  Solvation  Ediel_sol  =         0.00000000
  ---------------------------------------------------
  free energy    TOTEN  =      -327.09832573 eV

  energy without entropy =     -327.09832573  energy(sigma->0) =     -327.09832573


--------------------------------------------------------------------------------------------------------




--------------------------------------- Iteration      1(  18)  ---------------------------------------


    POTLOK:  cpu time    0.1180: real time    0.1224
    SETDIJ:  cpu time    0.0127: real time    0.0127
     EDDAV:  cpu time  136.1956: real time  137.1304
 BZINTS: Fermi energy:  4.958623;688.000000 electrons
         Band energy:***********;  BLOECHL correction:  0.000000
       DOS:  cpu time    0.0060: real time    0.0060
    CHARGE:  cpu time    1.4095: real time    1.4185
    MIXING:  cpu time    0.0019: real time    0.0019
    --------------------------------------------
      LOOP:  cpu time  137.7437: real time  138.6920

 eigenvalue-minimisations  : 20224
 total energy-change (2. order) :-0.3889552E-05  (-0.2668573E-05)
 number of electron     688.0000094 magnetization       0.0000000
 augmentation part      282.2452348 magnetization       0.0000000

 Broyden mixing:
  rms(total) = 0.44408E-03    rms(broyden)= 0.44385E-03
  rms(prec ) = 0.46440E-03
  weight for this iteration     100.00

 eigenvalues of (default mixing * dielectric matrix)
  average eigenvalue GAMMA=   1.3398
  4.1987  2.3949  2.3949  1.6385  1.3197  0.9870  0.9870  0.3314  0.5953  0.5953
  0.7125  0.6312  0.6312

 Free energy of the ion-electron system (eV)
  ---------------------------------------------------
  alpha Z        PSCENC =      2364.99897384
  Ewald energy   TEWEN  =    -62584.62482140
  -Hartree energ DENC   =    -42881.55491512
  -exchange      EXHF   =         0.00000000
  -V(xc)+E(xc)   XCENC  =      3286.51115494
  PAW double counting   =    112198.34972456  -115890.81488051
  entropy T*S    EENTRO =         0.00000000
  eigenvalues    EBANDS =    -10840.02867357
  atomic energy  EATOM  =    114020.06510763
  Solvation  Ediel_sol  =         0.00000000
  ---------------------------------------------------
  free energy    TOTEN  =      -327.09832962 eV

  energy without entropy =     -327.09832962  energy(sigma->0) =     -327.09832962


--------------------------------------------------------------------------------------------------------




--------------------------------------- Iteration      1(  19)  ---------------------------------------


    POTLOK:  cpu time    0.1205: real time    0.1213
    SETDIJ:  cpu time    0.0125: real time    0.0126
     EDDAV:  cpu time  170.0474: real time  171.1693
 BZINTS: Fermi energy:  4.958494;688.000000 electrons
         Band energy:***********;  BLOECHL correction:  0.000000
       DOS:  cpu time    0.0060: real time    0.0060
    CHARGE:  cpu time    1.4071: real time    1.4173
    MIXING:  cpu time    0.0020: real time    0.0020
    --------------------------------------------
      LOOP:  cpu time  171.5955: real time  172.7285

 eigenvalue-minimisations  : 24320
 total energy-change (2. order) :-0.4241883E-06  (-0.2544499E-06)
 number of electron     688.0000094 magnetization       0.0000000
 augmentation part      282.2451807 magnetization       0.0000000

 Broyden mixing:
[...]
   -.406E+02 0.351E+02 -.247E+01   0.414E+02 -.353E+02 0.250E+01   -.811E+00 0.224E+00 -.317E-01   -.105E-04 -.110E-05 0.373E-05
   -.406E+02 0.351E+02 -.247E+01   0.414E+02 -.353E+02 0.250E+01   -.811E+00 0.224E+00 -.317E-01   -.105E-04 -.110E-05 0.373E-05
   -.406E+02 0.351E+02 -.247E+01   0.414E+02 -.353E+02 0.250E+01   -.811E+00 0.224E+00 -.317E-01   -.105E-04 -.113E-05 0.373E-05
   -.406E+02 0.351E+02 -.247E+01   0.414E+02 -.353E+02 0.250E+01   -.811E+00 0.224E+00 -.317E-01   -.105E-04 -.113E-05 0.373E-05
   0.406E+02 0.351E+02 0.247E+01   -.414E+02 -.353E+02 -.250E+01   0.811E+00 0.224E+00 0.317E-01   0.105E-04 -.111E-05 -.373E-05
   0.406E+02 0.351E+02 0.247E+01   -.414E+02 -.353E+02 -.250E+01   0.811E+00 0.224E+00 0.317E-01   0.105E-04 -.111E-05 -.373E-05
   0.406E+02 0.351E+02 0.247E+01   -.414E+02 -.353E+02 -.250E+01   0.811E+00 0.224E+00 0.317E-01   0.105E-04 -.111E-05 -.373E-05
   0.406E+02 0.351E+02 0.247E+01   -.414E+02 -.353E+02 -.250E+01   0.811E+00 0.224E+00 0.317E-01   0.105E-04 -.111E-05 -.373E-05
   -.855E-08 -.176E+02 -.120E-06   0.639E-13 0.183E+02 0.000E+00   -.714E-24 -.661E+00 -.103E-24   -.507E-09 -.102E-04 -.130E-08
   -.855E-08 -.176E+02 -.120E-06   0.604E-13 0.183E+02 -.400E-13   -.223E-24 -.661E+00 -.103E-24   0.492E-09 -.102E-04 0.130E-08
   -.855E-08 -.176E+02 -.120E-06   0.568E-13 0.183E+02 0.284E-13   0.291E-25 -.661E+00 -.103E-24   -.507E-09 -.103E-04 -.130E-08
   -.855E-08 -.176E+02 -.120E-06   0.391E-13 0.183E+02 0.355E-14   -.113E-24 -.661E+00 0.000E+00   0.492E-09 -.103E-04 0.130E-08
   -.400E-08 0.677E+02 -.146E-06   0.746E-13 -.688E+02 0.293E-13   0.162E-25 0.104E+01 0.517E-25   0.157E-07 0.176E-04 -.762E-09
   -.400E-08 0.677E+02 -.146E-06   0.391E-13 -.688E+02 0.213E-13   -.149E-24 0.104E+01 0.220E-24   -.157E-07 0.176E-04 0.762E-09
   -.400E-08 0.677E+02 -.146E-06   0.355E-13 -.688E+02 0.711E-14   -.226E-25 0.104E+01 -.258E-24   0.157E-07 0.176E-04 -.761E-09
   -.400E-08 0.677E+02 -.146E-06   0.284E-13 -.688E+02 0.000E+00   0.961E-25 0.104E+01 0.142E-24   -.157E-07 0.176E-04 0.762E-09
   0.584E+01 -.323E+02 0.327E+01   -.578E+01 0.310E+02 -.334E+01   -.587E-01 0.128E+01 0.642E-01   0.708E-05 -.235E-04 -.505E-05
   0.584E+01 -.323E+02 0.327E+01   -.578E+01 0.310E+02 -.334E+01   -.587E-01 0.128E+01 0.642E-01   0.701E-05 -.235E-04 -.505E-05
   0.584E+01 -.323E+02 0.327E+01   -.578E+01 0.310E+02 -.334E+01   -.587E-01 0.128E+01 0.642E-01   0.708E-05 -.236E-04 -.504E-05
   0.584E+01 -.323E+02 0.327E+01   -.578E+01 0.310E+02 -.334E+01   -.587E-01 0.128E+01 0.642E-01   0.701E-05 -.236E-04 -.504E-05
   -.584E+01 -.323E+02 -.327E+01   0.578E+01 0.310E+02 0.334E+01   0.587E-01 0.128E+01 -.642E-01   -.701E-05 -.235E-04 0.504E-05
   -.584E+01 -.323E+02 -.327E+01   0.578E+01 0.310E+02 0.334E+01   0.587E-01 0.128E+01 -.642E-01   -.708E-05 -.235E-04 0.505E-05
   -.584E+01 -.323E+02 -.327E+01   0.578E+01 0.310E+02 0.334E+01   0.587E-01 0.128E+01 -.642E-01   -.701E-05 -.236E-04 0.504E-05
   -.584E+01 -.323E+02 -.327E+01   0.578E+01 0.310E+02 0.334E+01   0.587E-01 0.128E+01 -.642E-01   -.708E-05 -.236E-04 0.505E-05
   0.584E+01 -.323E+02 0.327E+01   -.578E+01 0.310E+02 -.334E+01   -.587E-01 0.128E+01 0.642E-01   0.708E-05 -.235E-04 -.504E-05
   0.584E+01 -.323E+02 0.327E+01   -.578E+01 0.310E+02 -.334E+01   -.587E-01 0.128E+01 0.642E-01   0.701E-05 -.235E-04 -.505E-05
   0.584E+01 -.323E+02 0.327E+01   -.578E+01 0.310E+02 -.334E+01   -.587E-01 0.128E+01 0.642E-01   0.708E-05 -.236E-04 -.504E-05
   0.584E+01 -.323E+02 0.327E+01   -.578E+01 0.310E+02 -.334E+01   -.587E-01 0.128E+01 0.642E-01   0.701E-05 -.236E-04 -.505E-05
   -.584E+01 -.323E+02 -.327E+01   0.578E+01 0.310E+02 0.334E+01   0.587E-01 0.128E+01 -.642E-01   -.701E-05 -.235E-04 0.504E-05
   -.584E+01 -.323E+02 -.327E+01   0.578E+01 0.310E+02 0.334E+01   0.587E-01 0.128E+01 -.642E-01   -.707E-05 -.235E-04 0.505E-05
   -.584E+01 -.323E+02 -.327E+01   0.578E+01 0.310E+02 0.334E+01   0.587E-01 0.128E+01 -.642E-01   -.701E-05 -.236E-04 0.504E-05
   -.584E+01 -.323E+02 -.327E+01   0.578E+01 0.310E+02 0.334E+01   0.587E-01 0.128E+01 -.642E-01   -.707E-05 -.236E-04 0.505E-05
   -.884E+01 -.312E+02 0.433E+01   0.869E+01 0.296E+02 -.443E+01   0.155E+00 0.168E+01 0.911E-01   0.120E-04 -.630E-05 -.189E-05
   -.884E+01 -.312E+02 0.433E+01   0.869E+01 0.296E+02 -.443E+01   0.155E+00 0.168E+01 0.911E-01   0.120E-04 -.630E-05 -.189E-05
   -.884E+01 -.312E+02 0.433E+01   0.869E+01 0.296E+02 -.443E+01   0.155E+00 0.168E+01 0.911E-01   0.120E-04 -.636E-05 -.189E-05
   -.884E+01 -.312E+02 0.433E+01   0.869E+01 0.296E+02 -.443E+01   0.155E+00 0.168E+01 0.911E-01   0.120E-04 -.636E-05 -.189E-05
   0.884E+01 -.312E+02 -.433E+01   -.869E+01 0.296E+02 0.443E+01   -.155E+00 0.168E+01 -.911E-01   -.120E-04 -.630E-05 0.189E-05
   0.884E+01 -.312E+02 -.433E+01   -.869E+01 0.296E+02 0.443E+01   -.155E+00 0.168E+01 -.911E-01   -.120E-04 -.630E-05 0.189E-05
   0.884E+01 -.312E+02 -.433E+01   -.869E+01 0.296E+02 0.443E+01   -.155E+00 0.168E+01 -.911E-01   -.120E-04 -.636E-05 0.189E-05
   0.884E+01 -.312E+02 -.433E+01   -.869E+01 0.296E+02 0.443E+01   -.155E+00 0.168E+01 -.911E-01   -.120E-04 -.636E-05 0.189E-05
   -.884E+01 -.312E+02 0.433E+01   0.869E+01 0.296E+02 -.443E+01   0.155E+00 0.168E+01 0.911E-01   0.120E-04 -.630E-05 -.189E-05
   -.884E+01 -.312E+02 0.433E+01   0.869E+01 0.296E+02 -.443E+01   0.155E+00 0.168E+01 0.911E-01   0.120E-04 -.630E-05 -.189E-05
   -.884E+01 -.312E+02 0.433E+01   0.869E+01 0.296E+02 -.443E+01   0.155E+00 0.168E+01 0.911E-01   0.120E-04 -.635E-05 -.190E-05
   -.884E+01 -.312E+02 0.433E+01   0.869E+01 0.296E+02 -.443E+01   0.155E+00 0.168E+01 0.911E-01   0.120E-04 -.635E-05 -.189E-05
   0.884E+01 -.312E+02 -.433E+01   -.869E+01 0.296E+02 0.443E+01   -.155E+00 0.168E+01 -.911E-01   -.120E-04 -.630E-05 0.189E-05
   0.884E+01 -.312E+02 -.433E+01   -.869E+01 0.296E+02 0.443E+01   -.155E+00 0.168E+01 -.911E-01   -.120E-04 -.630E-05 0.189E-05
   0.884E+01 -.312E+02 -.433E+01   -.869E+01 0.296E+02 0.443E+01   -.155E+00 0.168E+01 -.911E-01   -.120E-04 -.635E-05 0.189E-05
   0.884E+01 -.312E+02 -.433E+01   -.869E+01 0.296E+02 0.443E+01   -.155E+00 0.168E+01 -.911E-01   -.120E-04 -.635E-05 0.189E-05
 -----------------------------------------------------------------------------------------------
   -.480E-06 -.540E+02 -.180E-04   0.107E-13 0.345E-12 0.661E-12   -.164E-14 0.540E+02 0.000E+00   -.677E-11 -.437E-03 0.181E-11
 
 
 POSITION                                       TOTAL-FORCE (eV/Angst)
 -----------------------------------------------------------------------------------
      1.39158      1.24993      1.37399         0.000149     -0.008274      0.001828
      6.64170      1.24993      1.63079         0.000149     -0.008274      0.001828
      1.39158      6.51369      1.37399         0.000149     -0.008274      0.001828
      6.64170      6.51369      1.63079         0.000149     -0.008274      0.001828
      3.98565      3.88181      1.48163        -0.000149     -0.008274     -0.001828
      9.23577      3.88181      1.73842        -0.000149     -0.008274     -0.001828
      3.98565      9.14557      1.48163        -0.000149     -0.008274     -0.001828
      9.23577      9.14557      1.73842        -0.000149     -0.008274     -0.001828
      1.75743      3.89777      9.16010         0.000000     -0.006046     -0.000000
      7.00755      3.89777      9.41689         0.000000     -0.006046     -0.000000
      1.75743      9.16153      9.16010         0.000000     -0.006046     -0.000000
      7.00755      9.16153      9.41689         0.000000     -0.006046     -0.000000
      4.38249      1.28246      9.28850         0.000000     -0.002814     -0.000000
      9.63261      1.28246      9.54529         0.000000     -0.002814     -0.000000
      4.38249      6.54622      9.28850         0.000000     -0.002814     -0.000000
      9.63261      6.54622      9.54529         0.000000     -0.002814     -0.000000
      1.61482      1.24993      6.55089        -0.000149     -0.008274     -0.001828
      6.86494      1.24993      6.80768        -0.000149     -0.008274     -0.001828
      1.61482      6.51369      6.55089        -0.000149     -0.008274     -0.001828
      6.86494      6.51369      6.80768        -0.000149     -0.008274     -0.001828
      4.27087      3.88181      6.70005         0.000149     -0.008274      0.001828
      9.52099      3.88181      6.95684         0.000149     -0.008274      0.001828
      4.27087      9.14557      6.70005         0.000149     -0.008274      0.001828
      9.52099      9.14557      6.95684         0.000149     -0.008274      0.001828
      4.12826      1.26589      4.09084         0.000000     -0.006046     -0.000000
      9.37838      1.26589      4.34763         0.000000     -0.006046     -0.000000
      4.12826      6.52965      4.09084         0.000000     -0.006046     -0.000000
      9.37838      6.52965      4.34763         0.000000     -0.006046     -0.000000
      1.50320      3.91434      3.96244         0.000000     -0.002814     -0.000000
      6.75332      3.91434      4.21923         0.000000     -0.002814     -0.000000
      1.50320      9.17810      3.96244         0.000000     -0.002814     -0.000000
      6.75332      9.17810      4.21923         0.000000     -0.002814     -0.000000
     10.73062      0.05464      5.71018         0.001752      0.005978     -0.004717
      5.48050      0.05464      5.45339         0.001752      0.005978     -0.004717
     10.73062      5.31840      5.71018         0.001752      0.005978     -0.004717
      5.48050      5.31840      5.45339         0.001752      0.005978     -0.004717
      2.77602      0.05464      2.72829        -0.001752      0.005978      0.004717
      8.02614      0.05464      2.98508        -0.001752      0.005978      0.004717
      2.77602      5.31840      2.72829        -0.001752      0.005978      0.004717
      8.02614      5.31840      2.98508        -0.001752      0.005978      0.004717
      2.60121      2.68652      0.12733         0.001752      0.005978     -0.004717
      7.85133      2.68652      0.38413         0.001752      0.005978     -0.004717
      2.60121      7.95028      0.12733         0.001752      0.005978     -0.004717
      7.85133      7.95028      0.38413         0.001752      0.005978     -0.004717
      0.40519      2.68652      7.79755        -0.001752      0.005978      0.004717
      5.65531      2.68652      8.05434        -0.001752      0.005978      0.004717
      0.40519      7.95028      7.79755        -0.001752      0.005978      0.004717
      5.65531      7.95028      8.05434        -0.001752      0.005978      0.004717
     10.48676      0.05313      0.52068         0.002823      0.006726     -0.010054
      5.23664      0.05313      0.26389         0.002823      0.006726     -0.010054
     10.48676      5.31689      0.52068         0.002823      0.006726     -0.010054
      5.23664      5.31689      0.26389         0.002823      0.006726     -0.010054
      3.01988      0.05313      7.91779        -0.002823      0.006726      0.010054
      8.27000      0.05313      8.17458        -0.002823      0.006726      0.010054
      3.01988      5.31689      7.91779        -0.002823      0.006726      0.010054
      8.27000      5.31689      8.17458        -0.002823      0.006726      0.010054
      2.86581      2.68501      5.33315         0.002823      0.006726     -0.010054
      8.11593      2.68501      5.58995         0.002823      0.006726     -0.010054
      2.86581      7.94877      5.33315         0.002823      0.006726     -0.010054
      8.11593      7.94877      5.58995         0.002823      0.006726     -0.010054
      0.14059      2.68501      2.59173        -0.002823      0.006726      0.010054
      5.39071      2.68501      2.84852        -0.002823      0.006726      0.010054
      0.14059      7.94877      2.59173        -0.002823      0.006726      0.010054
      5.39071      7.94877      2.84852        -0.002823      0.006726      0.010054
 -----------------------------------------------------------------------------------
    total drift:                               -0.000000      0.001730     -0.000018


--------------------------------------------------------------------------------------------------------



  FREE ENERGIE OF THE ION-ELECTRON SYSTEM (eV)
  ---------------------------------------------------
  free  energy   TOTEN  =      -327.09833029 eV

  energy  without entropy=     -327.09833029  energy(sigma->0) =     -327.09833029
 


--------------------------------------------------------------------------------------------------------


    POTLOK:  cpu time    0.1310: real time    0.1318


--------------------------------------------------------------------------------------------------------


 writing wavefunctions
     LOOP+:  cpu time 3477.7817: real time 3502.1313
    4ORBIT:  cpu time    0.0000: real time    0.0000
 


 total charge     
 
# of ion       s       p       d       tot
------------------------------------------
    1        1.315   2.407   0.000   3.722
    2        1.315   2.407   0.000   3.722
    3        1.315   2.407   0.000   3.722
    4        1.315   2.407   0.000   3.722
    5        1.315   2.407   0.000   3.722
    6        1.315   2.407   0.000   3.722
    7        1.315   2.407   0.000   3.722
    8        1.315   2.407   0.000   3.722
    9        1.316   2.402   0.000   3.718
   10        1.316   2.402   0.000   3.718
   11        1.316   2.402   0.000   3.718
   12        1.316   2.402   0.000   3.718
   13        1.313   2.412   0.000   3.724
   14        1.313   2.412   0.000   3.724
   15        1.313   2.412   0.000   3.724
   16        1.313   2.412   0.000   3.724
   17        1.315   2.407   0.000   3.722
   18        1.315   2.407   0.000   3.722
   19        1.315   2.407   0.000   3.722
   20        1.315   2.407   0.000   3.722
   21        1.315   2.407   0.000   3.722
   22        1.315   2.407   0.000   3.722
   23        1.315   2.407   0.000   3.722
   24        1.315   2.407   0.000   3.722
   25        1.316   2.402   0.000   3.718
   26        1.316   2.402   0.000   3.718
   27        1.316   2.402   0.000   3.718
   28        1.316   2.402   0.000   3.718
   29        1.313   2.412   0.000   3.724
   30        1.313   2.412   0.000   3.724
   31        1.313   2.412   0.000   3.724
   32        1.313   2.412   0.000   3.724
   33        0.258   6.201   8.917  15.376
   34        0.258   6.201   8.917  15.376
   35        0.258   6.201   8.917  15.376
   36        0.258   6.201   8.917  15.376
   37        0.258   6.201   8.917  15.376
   38        0.258   6.201   8.917  15.376
   39        0.258   6.201   8.917  15.376
   40        0.258   6.201   8.917  15.376
   41        0.258   6.201   8.917  15.376
   42        0.258   6.201   8.917  15.376
   43        0.258   6.201   8.917  15.376
   44        0.258   6.201   8.917  15.376
   45        0.258   6.201   8.917  15.376
   46        0.258   6.201   8.917  15.376
   47        0.258   6.201   8.917  15.376
   48        0.258   6.201   8.917  15.376
   49        0.348   6.348   5.823  12.520
   50        0.348   6.348   5.823  12.520
   51        0.348   6.348   5.823  12.520
   52        0.348   6.348   5.823  12.520
   53        0.348   6.348   5.823  12.520
   54        0.348   6.348   5.823  12.520
   55        0.348   6.348   5.823  12.520
   56        0.348   6.348   5.823  12.520
   57        0.348   6.348   5.823  12.520
   58        0.348   6.348   5.823  12.520
   59        0.348   6.348   5.823  12.520
   60        0.348   6.348   5.823  12.520
   61        0.348   6.348   5.823  12.520
   62        0.348   6.348   5.823  12.520
   63        0.348   6.348   5.823  12.520
   64        0.348   6.348   5.823  12.520
--------------------------------------------------
tot         51.771 277.802 235.845 565.417
 


 magnetization (x)
 
# of ion       s       p       d       tot
------------------------------------------
    1       -0.000  -0.024   0.000  -0.024
    2       -0.000  -0.024   0.000  -0.024
    3       -0.000  -0.024   0.000  -0.024
    4       -0.000  -0.024   0.000  -0.024
    5        0.000   0.024   0.000   0.024
    6        0.000   0.024   0.000   0.024
    7        0.000   0.024   0.000   0.024
    8        0.000   0.024   0.000   0.024
    9       -0.000   0.000   0.000   0.000
   10       -0.000  -0.000   0.000  -0.000
   11       -0.000   0.000   0.000   0.000
   12       -0.000  -0.000   0.000  -0.000
   13       -0.000  -0.000   0.000  -0.000
   14       -0.000  -0.000   0.000  -0.000
   15       -0.000  -0.000   0.000  -0.000
   16       -0.000  -0.000   0.000  -0.000
   17        0.000   0.024   0.000   0.024
   18        0.000   0.024   0.000   0.024
   19        0.000   0.024   0.000   0.024
   20        0.000   0.024   0.000   0.024
   21       -0.000  -0.024   0.000  -0.024
   22       -0.000  -0.024   0.000  -0.024
   23       -0.000  -0.024   0.000  -0.024
   24       -0.000  -0.024   0.000  -0.024
   25       -0.000  -0.000   0.000  -0.000
   26       -0.000  -0.000   0.000  -0.000
   27       -0.000  -0.000   0.000  -0.000
   28       -0.000  -0.000   0.000  -0.000
   29       -0.000  -0.000   0.000  -0.000
   30       -0.000   0.000   0.000   0.000
   31       -0.000  -0.000   0.000  -0.000
   32       -0.000   0.000   0.000   0.000
   33        0.000   0.001  -0.003  -0.002
   34        0.000   0.001  -0.003  -0.002
   35        0.000   0.001  -0.003  -0.002
   36        0.000   0.001  -0.003  -0.002
   37       -0.000  -0.001   0.003   0.002
   38       -0.000  -0.001   0.003   0.002
   39       -0.000  -0.001   0.003   0.002
   40       -0.000  -0.001   0.003   0.002
   41        0.000   0.001  -0.003  -0.002
   42        0.000   0.001  -0.003  -0.002
   43        0.000   0.001  -0.003  -0.002
   44        0.000   0.001  -0.003  -0.002
   45       -0.000  -0.001   0.003   0.002
   46       -0.000  -0.001   0.003   0.002
   47       -0.000  -0.001   0.003   0.002
   48       -0.000  -0.001   0.003   0.002
   49        0.020   0.054   3.665   3.739
   50        0.020   0.054   3.665   3.739
   51        0.020   0.054   3.665   3.739
   52        0.020   0.054   3.665   3.739
   53       -0.020  -0.054  -3.665  -3.739
   54       -0.020  -0.054  -3.665  -3.739
   55       -0.020  -0.054  -3.665  -3.739
   56       -0.020  -0.054  -3.665  -3.739
   57        0.020   0.054   3.665   3.739
   58        0.020   0.054   3.665   3.739
   59        0.020   0.054   3.665   3.739
   60        0.020   0.054   3.665   3.739
   61       -0.020  -0.054  -3.665  -3.739
   62       -0.020  -0.054  -3.665  -3.739
   63       -0.020  -0.054  -3.665  -3.739
   64       -0.020  -0.054  -3.665  -3.739
--------------------------------------------------
tot         -0.000  -0.000  -0.000  -0.000
 
 BZINTS: Fermi energy:  4.958146;688.000000 electrons
         Band energy:***********;  BLOECHL correction:  0.000000

 total amount of memory used by VASP MPI-rank0   348353. kBytes
=======================================================================

   base      :      30000. kBytes
   nonl-proj :     216760. kBytes
   fftplans  :       4588. kBytes
   grid      :      69719. kBytes
   one-center:       1990. kBytes
   wavefun   :      25296. kBytes
 
  
  
 General timing and accounting informations for this job:
 ========================================================
  
                  Total CPU time used (sec):     3536.866
                            User time (sec):     3525.553
                          System time (sec):       11.313
                         Elapsed time (sec):     3562.583
  
                   Maximum memory used (kb):      705612.
                   Average memory used (kb):           0.
  
                          Minor page faults:       666293
                          Major page faults:         5680
                 Voluntary context switches:         7179
