       N       E                     dE             d eps       ncg     rms          ort
SDA:   1    -0.818441681700E+02   -0.81844E+02    0.00000E+00  7488   0.176E-04 0.000E+00
CGA:   2    -0.818441751358E+02   -0.69658E-05   -0.31146E-06  7488   0.101E-04 0.132E-04
CGA:   3    -0.818441794359E+02   -0.43002E-05   -0.15666E-06  7488   0.677E-05 0.822E-05
CGA:   4    -0.818441826080E+02   -0.31721E-05   -0.10178E-06  7488   0.490E-05 0.572E-05
CGA:   5    -0.818441852757E+02   -0.26677E-05   -0.77477E-07  7488   0.366E-05 0.421E-05
CGA:   6    -0.818441876281E+02   -0.23523E-05   -0.64452E-07  7488   0.274E-05 0.314E-05
CGA:   7    -0.818441895537E+02   -0.19256E-05   -0.57715E-07  7488   0.204E-05 0.234E-05
CGA:   8    -0.818441925011E+02   -0.29474E-05   -0.79463E-07  7488   0.127E-05 0.154E-05
CGA:   9    -0.818441921888E+02    0.31236E-06   -0.19860E-06  7488   0.146E-05-0.611E-06
CGA:  10    -0.818441922390E+02   -0.50193E-07   -0.47702E-08  7488   0.133E-05 0.665E-06
CGA:  11    -0.818441925782E+02   -0.33923E-06   -0.95651E-08  7488   0.113E-05 0.162E-05
CGA:  12    -0.818441934298E+02   -0.85167E-06   -0.15072E-07  7488   0.866E-06 0.981E-06
CGA:  13    -0.818441942457E+02   -0.81585E-06   -0.10536E-07  7488   0.679E-06 0.741E-06
CGA:  14    -0.818441950522E+02   -0.80652E-06   -0.58323E-08  7488   0.581E-06 0.609E-06
CGA:  15    -0.818441957753E+02   -0.72312E-06   -0.31614E-08  7488   0.507E-06 0.523E-06
CGA:  16    -0.818441961650E+02   -0.38964E-06   -0.16930E-08  7488   0.480E-06 0.486E-06
CGA:  17    -0.818441965043E+02   -0.33931E-06   -0.13594E-08  7488   0.451E-06 0.459E-06
CGA:  18    -0.818441967884E+02   -0.28416E-06   -0.11583E-08  7488   0.417E-06 0.424E-06
CGA:  19    -0.818441970287E+02   -0.24022E-06   -0.83783E-09  7488   0.407E-06 0.399E-06
CGA:  20    -0.818441972663E+02   -0.23763E-06   -0.84822E-09  7488   0.373E-06 0.373E-06
CGA:  21    -0.818441974697E+02   -0.20344E-06   -0.61682E-09  7488   0.360E-06 0.362E-06
CGA:  22    -0.818441976779E+02   -0.20815E-06   -0.63778E-09  7488   0.408E-06 0.307E-06
CGA:  23    -0.818441978750E+02   -0.19711E-06   -0.63266E-09  7488   0.429E-06 0.179E-06
CGA:  24    -0.818441980608E+02   -0.18577E-06   -0.45266E-09  7488   0.432E-06 0.542E-06
CGA:  25    -0.818441981913E+02   -0.13056E-06   -0.56914E-09  7488   0.451E-06 0.877E-07
CGA:  26    -0.818441983398E+02   -0.14846E-06   -0.32567E-09  7488   0.412E-06 0.507E-06
CGA:  27    -0.818441985485E+02   -0.20875E-06   -0.63434E-09  7488   0.453E-06 0.626E-07
CGA:  28    -0.818441986577E+02   -0.10915E-06   -0.23519E-09  7488   0.438E-06 0.505E-06
CGA:  29    -0.818441988002E+02   -0.14255E-06   -0.75468E-09  7488   0.427E-06 0.306E-07
CGA:  30    -0.818441988886E+02   -0.88421E-07   -0.17284E-09  7488   0.440E-06 0.434E-06
CGA:  31    -0.818441991970E+02   -0.30831E-06   -0.11093E-08  7488   0.432E-06-0.416E-07
CGA:  32    -0.818441992760E+02   -0.79086E-07   -0.10766E-09  7488   0.428E-06 0.389E-06
CGA:  33    -0.818441994527E+02   -0.17664E-06   -0.15684E-08  7488   0.410E-06-0.947E-07
CGA:  34    -0.818441994961E+02   -0.43452E-07   -0.71464E-10  7488   0.409E-06 0.318E-06
CGA:  35    -0.818441996139E+02   -0.11772E-06    0.36232E-08  7488   0.776E-06-0.375E-06
CGA:  36    -0.818441997780E+02   -0.16416E-06   -0.15412E-08  7488   0.726E-06 0.749E-06
CGA:  37    -0.818441999419E+02   -0.16385E-06   -0.17227E-08  7488   0.667E-06 0.691E-06
CGA:  38    -0.818442001277E+02   -0.18583E-06   -0.20017E-08  7488   0.606E-06 0.632E-06
CGA:  39    -0.818442003669E+02   -0.23916E-06   -0.22322E-08  7488   0.541E-06 0.567E-06
CGA:  40    -0.818442006665E+02   -0.29963E-06   -0.15076E-08  7488   0.489E-06 0.507E-06
CGA:  41    -0.818442008462E+02   -0.17971E-06   -0.66938E-09  7488   0.463E-06 0.467E-06
CGA:  42    -0.818442009340E+02   -0.87763E-07   -0.44460E-09  7488   0.452E-06 0.432E-06
CGA:  43    -0.818442009764E+02   -0.42426E-07   -0.36169E-09  7488   0.452E-06 0.405E-06
CGA:  44    -0.818442009999E+02   -0.23523E-07   -0.34216E-09  7488   0.442E-06 0.382E-06
CGA:  45    -0.818442010150E+02   -0.15127E-07   -0.32339E-09  7488   0.431E-06 0.374E-06
CGA:  46    -0.818442010276E+02   -0.12540E-07   -0.32718E-09  7488   0.421E-06 0.361E-06
CGA:  47    -0.818442010393E+02   -0.11711E-07   -0.31450E-09  7488   0.415E-06 0.347E-06
CGA:  48    -0.818442010539E+02   -0.14566E-07   -0.39869E-09  7488   0.398E-06 0.333E-06
CGA:  49    -0.818442010691E+02   -0.15265E-07   -0.36306E-09  7488   0.384E-06 0.322E-06
CGA:  50    -0.818442010917E+02   -0.22614E-07   -0.50967E-09  7488   0.367E-06 0.306E-06
CGA:  51    -0.818442011142E+02   -0.22490E-07   -0.42091E-09  7488   0.335E-06 0.319E-06
CGA:  52    -0.818442011435E+02   -0.29304E-07   -0.59314E-09  7488   0.333E-06 0.301E-06
CGA:  53    -0.818442011658E+02   -0.22312E-07   -0.62308E-09  7488   0.323E-06 0.278E-06
CGA:  54    -0.818442011885E+02   -0.22701E-07   -0.12405E-08  7488   0.339E-06 0.238E-06
CGA:  55    -0.818442011974E+02   -0.88294E-08   -0.22799E-09  7488   0.310E-06 0.267E-06
   1 F= -.81844201E+02 E0= -.81844201E+02  d E =0.000000E+00  mag=    -0.0000     0.0000     0.0000
