 vasp.5.4.4.18Apr17-6-g9f103f2a35 (build Oct 30 2023 17:49:44) complex          
  
 executed on             LinuxIFC date 2024.12.09  11:02:30
 running on  256 total cores
 distrk:  each k-point on  256 cores,    1 groups
 distr:  one band on NCORES_PER_BAND=  32 cores,    8 groups


--------------------------------------------------------------------------------------------------------


 INCAR:
 POTCAR:    PAW_PBE S 06Sep2000                   
 POTCAR:     PAW_PBE Cu_pv 06Sep2000              
 POTCAR:     PAW_PBE Fe_pv 02Aug2007              
 POTCAR:    PAW_PBE S 06Sep2000                   
   SHA256 =  0fc7481fb0695f01bdc6462160264c5c84044ae9ec85a907d398b887a2bc3132 S/
   COPYR  = (c) Copyright 06Sep2000 Georg Kresse                                
   COPYR  = This file is part of the software VASP. Any use, copying, and all ot
   COPYR  = If you do not have a valid VASP license, you may not use, copy or di
   VRHFIN =S : s2p4                                                             
   LEXCH  = PE                                                                  
   EATOM  =   276.8230 eV,   20.3459 Ry                                         
                                                                                
   TITEL  = PAW_PBE S 06Sep2000                                                 
   LULTRA =        F    use ultrasoft PP ?                                      
   IUNSCR =        1    unscreen: 0-lin 1-nonlin 2-no                           
   RPACOR =    1.500    partial core radius                                     
   POMASS =   32.066; ZVAL   =    6.000    mass and valenz                      
   RCORE  =    1.900    outmost cutoff radius                                   
   RWIGS  =    2.200; RWIGS  =    1.164    wigner-seitz radius (au A)           
   ENMAX  =  258.689; ENMIN  =  194.016 eV                                      
   ICORE  =        2    local potential                                         
   LCOR   =        T    correct aug charges                                     
   LPAW   =        T    paw PP                                                  
   EAUG   =  335.092                                                            
   DEXC   =    0.000                                                            
   RMAX   =    1.942    core radius for proj-oper                               
   RAUG   =    1.300    factor for augmentation sphere                          
   RDEP   =    1.954    radius for radial grids                                 
   RDEPT  =    1.744    core radius for aug-charge                              
                                                                                
   Atomic configuration                                                         
    6 entries                                                                   
     n  l   j            E        occ.                                          
     1  0  0.50     -2405.8406   2.0000                                         
     2  0  0.50      -211.7007   2.0000                                         
     2  1  1.50      -156.4958   6.0000                                         
     3  0  0.50       -17.2562   2.0000                                         
     3  1  0.50        -7.0085   4.0000                                         
     3  2  1.50        -6.8029   0.0000                                         
   Description                                                                  
     l       E           TYP  RCUT    TYP  RCUT                                 
     0    -17.2561641     23  1.900                                             
     0    -15.8743224     23  1.900                                             
     1     -7.0085400     23  1.900                                             
     1     -2.7779785     23  1.900                                             
     2     -6.8029130     23  1.900                                             
  local pseudopotential read in
  partial core-charges read in
  partial kinetic energy density read in
  atomic valenz-charges read in
  non local Contribution for L=           0  read in
    real space projection operators read in
  non local Contribution for L=           0  read in
    real space projection operators read in
  non local Contribution for L=           1  read in
    real space projection operators read in
  non local Contribution for L=           1  read in
    real space projection operators read in
    PAW grid and wavefunctions read in
 
   number of l-projection  operators is LMAX  =           4
   number of lm-projection operators is LMMAX =           8
 
 POTCAR:     PAW_PBE Cu_pv 06Sep2000              
   SHA256 =  cb7b504e2ea725fe1f25c85a9ac77d4012ce94cd394135b722c4e25ec297f1cb Cu
   COPYR  = (c) Copyright 06Sep2000 Georg Kresse                                
   COPYR  = This file is part of the software VASP. Any use, copying, and all ot
   COPYR  = If you do not have a valid VASP license, you may not use, copy or di
   VRHFIN =Cu: d10 p1                                                           
   LEXCH  = PE                                                                  
   EATOM  =  4120.1201 eV,  302.8203 Ry                                         
                                                                                
   TITEL  = PAW_PBE Cu_pv 06Sep2000                                             
   LULTRA =        F    use ultrasoft PP ?                                      
   IUNSCR =        1    unscreen: 0-lin 1-nonlin 2-no                           
   RPACOR =    1.500    partial core radius                                     
   POMASS =   63.546; ZVAL   =   17.000    mass and valenz                      
   RCORE  =    2.000    outmost cutoff radius                                   
   RWIGS  =    2.000; RWIGS  =    1.058    wigner-seitz radius (au A)           
   ENMAX  =  368.648; ENMIN  =  276.486 eV                                      
   RCLOC  =    1.304    cutoff for local pot                                    
   LCOR   =        T    correct aug charges                                     
   LPAW   =        T    paw PP                                                  
   EAUG   =  758.233                                                            
   DEXC   =    0.000                                                            
   RMAX   =    2.046    core radius for proj-oper                               
   RAUG   =    1.300    factor for augmentation sphere                          
   RDEP   =    2.025    radius for radial grids                                 
   RDEPT  =    1.558    core radius for aug-charge                              
                                                                                
   Atomic configuration                                                         
    8 entries                                                                   
     n  l   j            E        occ.                                          
     1  0  0.50     -8850.2467   2.0000                                         
     2  0  0.50     -1062.3498   2.0000                                         
     2  1  1.50      -916.8226   6.0000                                         
     3  0  0.50      -114.6929   2.0000                                         
     3  1  1.50       -72.1325   6.0000                                         
     3  2  2.50        -5.0394  10.0000                                         
     4  0  0.50        -4.6097   1.0000                                         
     4  3  2.50        -1.3606   0.0000                                         
   Description                                                                  
     l       E           TYP  RCUT    TYP  RCUT                                 
     1    -72.1324777     23  1.700                                             
     1     -1.3605826     23  1.700                                             
     2     -5.0393776     23  2.000                                             
     2     -6.3999602     23  2.000                                             
     0     -4.6097062     23  1.800                                             
     0     14.1620818     23  1.800                                             
  local pseudopotential read in
  partial core-charges read in
  partial kinetic energy density read in
  atomic valenz-charges read in
  non local Contribution for L=           1  read in
    real space projection operators read in
  non local Contribution for L=           1  read in
    real space projection operators read in
  non local Contribution for L=           2  read in
    real space projection operators read in
  non local Contribution for L=           2  read in
    real space projection operators read in
  non local Contribution for L=           0  read in
    real space projection operators read in
  non local Contribution for L=           0  read in
    real space projection operators read in
    PAW grid and wavefunctions read in
 
   number of l-projection  operators is LMAX  =           6
   number of lm-projection operators is LMMAX =          18
 
 POTCAR:     PAW_PBE Fe_pv 02Aug2007              
   SHA256 =  5d22e414b1f82158bf2c7ecb8b97b28fd0923e48cadc1c3bf74d524558f5dd32 Fe
   COPYR  = (c) Copyright 02Aug2007 Georg Kresse                                
   COPYR  = This file is part of the software VASP. Any use, copying, and all ot
   COPYR  = If you do not have a valid VASP license, you may not use, copy or di
   VRHFIN =Fe:  3pd7s1                                                          
   LEXCH  = PE                                                                  
   EATOM  =  2457.4239 eV,  180.6156 Ry                                         
                                                                                
   TITEL  = PAW_PBE Fe_pv 02Aug2007                                             
   LULTRA =        F    use ultrasoft PP ?                                      
   IUNSCR =        1    unscreen: 0-lin 1-nonlin 2-no                           
   RPACOR =    1.750    partial core radius                                     
   POMASS =   55.847; ZVAL   =   14.000    mass and valenz                      
   RCORE  =    2.200    outmost cutoff radius                                   
   RWIGS  =    2.200; RWIGS  =    1.164    wigner-seitz radius (au A)           
   ENMAX  =  293.238; ENMIN  =  219.928 eV                                      
   ICORE  =        3    local potential                                         
   LCOR   =        T    correct aug charges                                     
   LPAW   =        T    paw PP                                                  
   EAUG   =  578.342                                                            
   DEXC   =    0.000                                                            
   RMAX   =    2.249    core radius for proj-oper                               
   RAUG   =    1.300    factor for augmentation sphere                          
   RDEP   =    2.296    radius for radial grids                                 
   RDEPT  =    1.766    core radius for aug-charge                              
                                                                                
   Atomic configuration                                                         
    8 entries                                                                   
     n  l   j            E        occ.                                          
     1  0  0.50     -6993.8440   2.0000                                         
     2  0  0.50      -814.6047   2.0000                                         
     2  1  1.50      -693.3689   6.0000                                         
     3  0  0.50       -89.4732   2.0000                                         
     3  1  1.50       -55.6373   6.0000                                         
     3  2  2.50        -3.8151   7.0000                                         
     4  0  0.50        -4.2551   1.0000                                         
     4  3  2.50        -1.3606   0.0000                                         
   Description                                                                  
     l       E           TYP  RCUT    TYP  RCUT                                 
     1    -55.6372668     23  2.000                                             
     1     -5.4423304     23  2.000                                             
     2     -3.8151096     23  2.200                                             
     2     -5.1756922     23  2.200                                             
     0     -4.2550951     23  2.200                                             
     0     27.2116520     23  2.200                                             
     3     -1.3605826     23  2.200                                             
  local pseudopotential read in
  partial core-charges read in
  partial kinetic energy density read in
  atomic valenz-charges read in
  non local Contribution for L=           1  read in
    real space projection operators read in
  non local Contribution for L=           1  read in
    real space projection operators read in
  non local Contribution for L=           2  read in
    real space projection operators read in
  non local Contribution for L=           2  read in
    real space projection operators read in
  non local Contribution for L=           0  read in
    real space projection operators read in
  non local Contribution for L=           0  read in
    real space projection operators read in
    PAW grid and wavefunctions read in
 
   number of l-projection  operators is LMAX  =           6
   number of lm-projection operators is LMMAX =          18
 

 ----------------------------------------------------------------------------- 
|                                                                             |
|  ADVICE TO THIS USER RUNNING 'VASP/VAMP'   (HEAR YOUR MASTER'S VOICE ...):  |
|                                                                             |
|      You enforced a specific xc-type in the INCAR file,                     |
|      a different type was found on the POTCAR file                          |
|          I HOPE YOU KNOW, WHAT YOU ARE  DOING                               |
|                                                                             |
 ----------------------------------------------------------------------------- 

  PAW_PBE S 06Sep2000                   :
 energy of atom  1       EATOM= -276.8230
 kinetic energy error for atom=    0.0007 (will be added to EATOM!!)
   PAW_PBE Cu_pv 06Sep2000              :
 energy of atom  2       EATOM=-4120.1201
 kinetic energy error for atom=    0.0094 (will be added to EATOM!!)
   PAW_PBE Fe_pv 02Aug2007              :
 energy of atom  3       EATOM=-2457.4239
 kinetic energy error for atom=    0.0025 (will be added to EATOM!!)
 
 
 POSCAR: sm_isp_SD0310437-standardized_unitcell  
  positions in direct lattice
  velocities in cartesian coordinates
 exchange correlation table for  LEXCH =       14
   RHO(1)=    0.500       N(1)  =     2000
   RHO(2)=  100.500       N(2)  =     4000
 


--------------------------------------------------------------------------------------------------------


 ion  position               nearest neighbor table
   1  0.252  0.250  0.125-  10 2.29  11 2.29  13 2.30  16 2.30
   2  0.748  0.750  0.125-  10 2.29  11 2.29  13 2.30  16 2.30
   3  0.250  0.748  0.875-  11 2.28  12 2.28  13 2.29  14 2.29
   4  0.750  0.252  0.875-  11 2.28  12 2.28  13 2.29  14 2.29
   5  0.248  0.250  0.625-   9 2.29  12 2.29  14 2.30  15 2.30
   6  0.752  0.750  0.625-   9 2.29  12 2.29  14 2.30  15 2.30
   7  0.750  0.248  0.375-   9 2.28  10 2.28  15 2.29  16 2.29
   8  0.250  0.752  0.375-   9 2.28  10 2.28  15 2.29  16 2.29
   9  0.000  0.000  0.500-   7 2.28   8 2.28   5 2.29   6 2.29
  10  0.500  0.000  0.250-   7 2.28   8 2.28   1 2.29   2 2.29
  11  0.500  0.500  1.000-   4 2.28   3 2.28   1 2.29   2 2.29
  12  0.000  0.500  0.750-   4 2.28   3 2.28   5 2.29   6 2.29
  13  0.000  0.000  1.000-   3 2.29   4 2.29   2 2.30   1 2.30
  14  0.500  0.000  0.750-   3 2.29   4 2.29   6 2.30   5 2.30
  15  0.500  0.500  0.500-   8 2.29   7 2.29   6 2.30   5 2.30
  16  0.000  0.500  0.250-   8 2.29   7 2.29   2 2.30   1 2.30
 
  LATTYP: Found a simple orthorhombic cell.
 ALAT       =     4.9734384990
 B/A-ratio  =     1.0996691892
 C/A-ratio  =     2.1764958260
  
  Lattice vectors:
  
 A1 = (   0.0000000000,  -4.9734384990,   0.0000000000)
 A2 = (  -5.4691370817,   0.0000000000,   0.0000000000)
 A3 = (   0.0000000000,   0.0000000000, -10.8246681341)


Analysis of symmetry for initial positions (statically):
=====================================================================
 Subroutine PRICEL returns following result:
 
  LATTYP: Found a body centered orthorhombic cell.
 ALAT       =     4.9734384990
 B/A-ratio  =     1.0996691892
 C/A-ratio  =     2.1764958260
  
  Lattice vectors:
  
 A1 = (  -2.7345685409,  -2.4867192495,   5.4123340670)
 A2 = (   2.7345685409,   2.4867192495,   5.4123340670)
 A3 = (  -2.7345685409,   2.4867192495,  -5.4123340670)
 
   2 primitive cells build up your supercell.
 

 Routine SETGRP: Setting up the symmetry group for a 
 simple orthorhombic supercell.


 Subroutine GETGRP returns: Found  4 space group operations
 (whereof  2 operations were pure point group operations)
 out of a pool of  8 trial point group operations.


The static configuration has the point symmetry C_2 .
 The point group associated with its full space group is D_2 .


Analysis of symmetry for dynamics (positions and initial velocities):
=====================================================================
 Subroutine PRICEL returns following result:
 
  LATTYP: Found a body centered orthorhombic cell.
 ALAT       =     4.9734384990
 B/A-ratio  =     1.0996691892
 C/A-ratio  =     2.1764958260
  
  Lattice vectors:
  
 A1 = (  -2.7345685409,  -2.4867192495,   5.4123340670)
 A2 = (   2.7345685409,   2.4867192495,   5.4123340670)
 A3 = (  -2.7345685409,   2.4867192495,  -5.4123340670)
 
   2 primitive cells build up your supercell.
 

 Routine SETGRP: Setting up the symmetry group for a 
 simple orthorhombic supercell.


 Subroutine GETGRP returns: Found  4 space group operations
 (whereof  2 operations were pure point group operations)
 out of a pool of  8 trial point group operations.


The dynamic configuration has the point symmetry C_2 .
 The point group associated with its full space group is D_2 .


Analysis of structural, dynamic, and magnetic symmetry:
=====================================================================
 Subroutine PRICEL returns following result:
 
  LATTYP: Found a body centered orthorhombic cell.
 ALAT       =     4.9734384990
 B/A-ratio  =     1.0996691892
 C/A-ratio  =     2.1764958260
  
  Lattice vectors:
  
 A1 = (  -2.7345685409,  -2.4867192495,   5.4123340670)
 A2 = (   2.7345685409,   2.4867192495,   5.4123340670)
 A3 = (  -2.7345685409,   2.4867192495,  -5.4123340670)
 
   2 primitive cells build up your supercell.
 

 Routine SETGRP: Setting up the symmetry group for a 
 simple orthorhombic supercell.


 Subroutine GETGRP returns: Found  4 space group operations
 (whereof  2 operations were pure point group operations)
 out of a pool of  8 trial point group operations.


The (compounded) configuration has the point symmetry C_2 .
 The point group associated with its full space group is D_2 .


 Subroutine INISYM returns: Found  4 space group operations
 (whereof  2 operations are pure point group operations),
 and found     2 'primitive' translations

 
 
 KPOINTS: Automatic mesh                          

Automatic generation of k-mesh.
Space group operators:
 irot       det(A)        alpha          n_x          n_y          n_z        tau_x        tau_y        tau_z
    1     1.000000     0.000001     1.000000     0.000000     0.000000     0.000000     0.000000     0.000000
    2     1.000000   180.000000     0.000000     0.000000     1.000000     0.000000     0.000000     0.000000
    3     1.000000   179.999999     1.000000     0.000000     0.000000     0.000000     0.500000     0.250000
    4     1.000000   180.000000     0.000000     1.000000     0.000000     0.000000     0.500000     0.250000
 
 Subroutine IBZKPT returns following result:
 ===========================================
 
 Found     36 irreducible k-points:
 
 Following reciprocal coordinates:
            Coordinates               Weight
  0.000000  0.000000  0.000000      1.000000
  0.166667  0.000000  0.000000      2.000000
  0.333333  0.000000  0.000000      2.000000
  0.500000  0.000000  0.000000      1.000000
  0.000000  0.166667  0.000000      2.000000
  0.166667  0.166667  0.000000      4.000000
  0.333333  0.166667  0.000000      4.000000
  0.500000  0.166667  0.000000      2.000000
  0.000000  0.333333  0.000000      2.000000
  0.166667  0.333333  0.000000      4.000000
  0.333333  0.333333  0.000000      4.000000
  0.500000  0.333333  0.000000      2.000000
  0.000000  0.500000  0.000000      1.000000
  0.166667  0.500000  0.000000      2.000000
  0.333333  0.500000  0.000000      2.000000
  0.500000  0.500000  0.000000      1.000000
  0.000000  0.000000  0.333333      2.000000
  0.166667  0.000000  0.333333      4.000000
  0.333333  0.000000  0.333333      4.000000
  0.500000  0.000000  0.333333      2.000000
  0.000000  0.166667  0.333333      4.000000
  0.166667  0.166667  0.333333      4.000000
  0.333333  0.166667  0.333333      4.000000
  0.500000  0.166667  0.333333      4.000000
 -0.333333  0.166667  0.333333      4.000000
 -0.166667  0.166667  0.333333      4.000000
  0.000000  0.333333  0.333333      4.000000
  0.166667  0.333333  0.333333      4.000000
  0.333333  0.333333  0.333333      4.000000
  0.500000  0.333333  0.333333      4.000000
 -0.333333  0.333333  0.333333      4.000000
 -0.166667  0.333333  0.333333      4.000000
  0.000000  0.500000  0.333333      2.000000
  0.166667  0.500000  0.333333      4.000000
  0.333333  0.500000  0.333333      4.000000
  0.500000  0.500000  0.333333      2.000000
 
 Following cartesian coordinates:
            Coordinates               Weight
  0.000000  0.000000  0.000000      1.000000
  0.030474  0.000000  0.000000      2.000000
  0.060948  0.000000  0.000000      2.000000
  0.091422  0.000000  0.000000      1.000000
  0.000000  0.033511  0.000000      2.000000
  0.030474  0.033511  0.000000      4.000000
  0.060948  0.033511  0.000000      4.000000
  0.091422  0.033511  0.000000      2.000000
  0.000000  0.067023  0.000000      2.000000
  0.030474  0.067023  0.000000      4.000000
  0.060948  0.067023  0.000000      4.000000
  0.091422  0.067023  0.000000      2.000000
  0.000000  0.100534  0.000000      1.000000
  0.030474  0.100534  0.000000      2.000000
  0.060948  0.100534  0.000000      2.000000
  0.091422  0.100534  0.000000      1.000000
  0.000000  0.000000  0.030794      2.000000
  0.030474  0.000000  0.030794      4.000000
  0.060948  0.000000  0.030794      4.000000
  0.091422  0.000000  0.030794      2.000000
  0.000000  0.033511  0.030794      4.000000
  0.030474  0.033511  0.030794      4.000000
  0.060948  0.033511  0.030794      4.000000
  0.091422  0.033511  0.030794      4.000000
 -0.060948  0.033511  0.030794      4.000000
 -0.030474  0.033511  0.030794      4.000000
  0.000000  0.067023  0.030794      4.000000
  0.030474  0.067023  0.030794      4.000000
  0.060948  0.067023  0.030794      4.000000
  0.091422  0.067023  0.030794      4.000000
 -0.060948  0.067023  0.030794      4.000000
 -0.030474  0.067023  0.030794      4.000000
  0.000000  0.100534  0.030794      2.000000
  0.030474  0.100534  0.030794      4.000000
  0.060948  0.100534  0.030794      4.000000
  0.091422  0.100534  0.030794      2.000000
 
 TETIRR: Found    544 inequivalent tetrahedra from      648


--------------------------------------------------------------------------------------------------------




 Dimension of arrays:
   k-points           NKPTS =     36   k-points in BZ     NKDIM =     36   number of bands    NBANDS=    208
   number of dos      NEDOS =    301   number of ions     NIONS =     16
   non local maximal  LDIM  =      6   non local SUM 2l+1 LMDIM =     18
   total plane-waves  NPLWV = 221184
   max r-space proj   IRMAX =      1   max aug-charges    IRDMAX=  23864
   dimension x,y,z NGX =    48 NGY =   48 NGZ =   96
   dimension x,y,z NGXF=    96 NGYF=   96 NGZF=  192
   support grid    NGXF=    96 NGYF=   96 NGZF=  192
   ions per type =               8   4   4
   NGX,Y,Z   is equivalent  to a cutoff of  14.59, 16.04, 14.74 a.u.
   NGXF,Y,Z  is equivalent  to a cutoff of  29.18, 32.09, 29.49 a.u.

 SYSTEM =  CuFeS2                                  
 POSCAR =  sm_isp_SD0310437-standardized_unitcell  

 Startparameter for this run:
   NWRITE =      2    write-flag & timer
   PREC   = accura    normal or accurate (medium, high low for compatibility)
   ISTART =      1    job   : 0-new  1-cont  2-samecut
   ICHARG =      1    charge: 1-file 2-atom 10-const
   ISPIN  =      1    spin polarized calculation?
   LNONCOLLINEAR =      T non collinear calculations
   LSORBIT =      F    spin-orbit coupling
   INIWAV =      1    electr: 0-lowe 1-rand  2-diag
   LASPH  =      T    aspherical Exc in radial PAW
   METAGGA=      F    non-selfconsistent MetaGGA calc.

 Electronic Relaxation 1
   ENCUT  =  700.0 eV  51.45 Ry    7.17 a.u.  11.80 10.73 23.35*2*pi/ulx,y,z
   ENINI  =  700.0     initial cutoff
   ENAUG  =  758.2 eV  augmentation charge cutoff
   NELM   =    200;   NELMIN=  2; NELMDL=  0     # of ELM steps 
   EDIFF  = 0.1E-07   stopping-criterion for ELM
   LREAL  =      F    real-space projection
   NLSPLINE    = F    spline interpolate recip. space projectors
   LCOMPAT=      F    compatible to vasp.4.4
   GGA_COMPAT  = T    GGA compatible to vasp.4.4-vasp.4.6
   LMAXPAW     = -100 max onsite density
   LMAXMIX     =    4 max onsite mixed and CHGCAR
   VOSKOWN=      0    Vosko Wilk Nusair interpolation
   ROPT   =    0.00000   0.00000   0.00000
 Ionic relaxation
   EDIFFG = -.1E-04   stopping-criterion for IOM
   NSW    =      0    number of steps for IOM
   NBLOCK =      1;   KBLOCK =      1    inner block; outer block 
   IBRION =     -1    ionic relax: 0-MD 1-quasi-New 2-CG
   NFREE  =      0    steps in history (QN), initial steepest desc. (CG)
   ISIF   =      2    stress and relaxation
   IWAVPR =     10    prediction:  0-non 1-charg 2-wave 3-comb
   ISYM   =      1    0-nonsym 1-usesym 2-fastsym
   LCORR  =      T    Harris-Foulkes like correction to forces

   POTIM  = 0.1000    time-step for ionic-motion
   TEIN   =    0.0    initial temperature
   TEBEG  =    0.0;   TEEND  =   0.0 temperature during run
   SMASS  =  -3.00    Nose mass-parameter (am)
   estimated Nose-frequenzy (Omega)   =  0.10E-29 period in steps =****** mass=  -0.684E-27a.u.
   SCALEE = 1.0000    scale energy and forces
   NPACO  =    256;   APACO  = 16.0  distance and # of slots for P.C.
   PSTRESS=    0.0 pullay stress

  Mass of Ions in am
   POMASS =  32.07 63.55 55.85
  Ionic Valenz
   ZVAL   =   6.00 17.00 14.00
  Atomic Wigner-Seitz radii
   RWIGS  =  -1.00 -1.00 -1.00
  virtual crystal weights 
   VCA    =   1.00  1.00  1.00
   NELECT =     172.0000    total number of electrons
   NUPDOWN=      -1.0000    fix difference up-down

 DOS related values:
   EMIN   =  10.00;   EMAX   =-10.00  energy-range for DOS
   EFERMI =   0.00
   ISMEAR =    -5;   SIGMA  =   0.03  broadening in eV -4-tet -1-fermi 0-gaus

 Electronic relaxation 2 (details)
   IALGO  =     58    algorithm
   LDIAG  =      T    sub-space diagonalisation (order eigenvalues)
   LSUBROT=      F    optimize rotation matrix (better conditioning)
   TURBO    =      0    0=normal 1=particle mesh
   IRESTART =      0    0=no restart 2=restart with 2 vectors
   NREBOOT  =      0    no. of reboots
   NMIN     =      0    reboot dimension
   EREF     =   0.00    reference energy to select bands
   IMIX   =      4    mixing-type and parameters
     AMIX     =   0.40;   BMIX     =  1.00
     AMIX_MAG =   1.60;   BMIX_MAG =  1.00
     AMIN     =   0.10
     WC   =   100.;   INIMIX=   1;  MIXPRE=   1;  MAXMIX= -45

 Intra band minimization:
   WEIMIN = 0.0000     energy-eigenvalue tresh-hold
   EBREAK =  0.12E-10  absolut break condition
   DEPER  =   0.30     relativ break condition  

   TIME   =   0.40     timestep for ELM

  volume/ion in A,a.u.               =      18.40       124.18
  Fermi-wavevector in a.u.,A,eV,Ry     =   1.368530  2.586146 25.481996  1.872874
  Thomas-Fermi vector in A             =   2.494486
 
 Write flags
   LWAVE        =      T    write WAVECAR
   LDOWNSAMPLE  =      F    k-point downsampling of WAVECAR
   LCHARG       =      T    write CHGCAR
   LVTOT        =      F    write LOCPOT, total local potential
   LVHAR        =      F    write LOCPOT, Hartree potential only
   LELF         =      F    write electronic localiz. function (ELF)
   LORBIT       =     11    0 simple, 1 ext, 2 COOP (PROOUT), +10 PAW based schemes


 Dipole corrections
   LMONO  =      F    monopole corrections only (constant potential shift)
   LDIPOL =      F    correct potential (dipole corrections)
   IDIPOL =      0    1-x, 2-y, 3-z, 4-all directions 
   EPSILON=  1.0000000 bulk dielectric constant

 LDA+U is selected, type is set to LDAUTYPE =  2
   angular momentum for each species LDAUL =     2    2    2
   U (eV)           for each species LDAUU =   0.0  0.1  4.7
   J (eV)           for each species LDAUJ =   0.0  0.0  0.0
 Exchange correlation treatment:
   GGA     =    PS    GGA type
   LEXCH   =    14    internal setting for exchange type
   VOSKOWN=      0    Vosko Wilk Nusair interpolation
   LHFCALC =     F    Hartree Fock is set to
   LHFONE  =     F    Hartree Fock one center treatment
   AEXX    =    0.0000 exact exchange contribution

 Linear response parameters
   LEPSILON=     F    determine dielectric tensor
   LRPA    =     F    only Hartree local field effects (RPA)
   LNABLA  =     F    use nabla operator in PAW spheres
   LVEL    =     F    velocity operator in full k-point grid
   LINTERFAST=   F  fast interpolation
   KINTER  =     0    interpolate to denser k-point grid
   CSHIFT  =0.1000    complex shift for real part using Kramers Kronig
   OMEGAMAX=  -1.0    maximum frequency
   DEG_THRESHOLD= 0.2000000E-02 threshold for treating states as degnerate
   RTIME   =   -0.100 relaxation time in fs
  (WPLASMAI=    0.000 imaginary part of plasma frequency in eV, 0.658/RTIME)
   DFIELD  = 0.0000000 0.0000000 0.0000000 field for delta impulse in time
 
 Orbital magnetization related:
   ORBITALMAG=     F  switch on orbital magnetization
   LCHIMAG   =     F  perturbation theory with respect to B field
   DQ        =  0.001000  dq finite difference perturbation B field
   LLRAUG    =     F  two centre corrections for induced B field



--------------------------------------------------------------------------------------------------------


 Static calculation
 charge density and potential will be updated during run
 non collinear spin polarized calculation
 Conjugate gradient for all bands (Freysoldt, et al. PRB 79, 241103 (2009))
 preconditioned conjugated gradient                                        
 perform sub-space diagonalisation
    before iterative eigenvector-optimisation
 modified Broyden-mixing scheme, WC =      100.0
 initial mixing is a Kerker type mixing with AMIX =  0.4000 and BMIX =      1.0000
 Hartree-type preconditioning will be used
 using additional bands          122
 reciprocal scheme for non local part
 use partial core corrections
 no Harris-corrections to forces 
 use gradient corrections 
 use of overlap-Matrix (Vanderbilt PP)
 Fermi weights with tetrahedron method with Bloechl corrections


--------------------------------------------------------------------------------------------------------


  energy-cutoff  :      700.00
  volume of cell :      294.44
      direct lattice vectors                 reciprocal lattice vectors
     5.469137082  0.000000000  0.000000000     0.182844201  0.000000000  0.000000000
     0.000000000  4.973438499  0.000000000     0.000000000  0.201068134  0.000000000
     0.000000000  0.000000000 10.824668134     0.000000000  0.000000000  0.092381585

  length of vectors
     5.469137082  4.973438499 10.824668134     0.182844201  0.201068134  0.092381585


 
 old parameters found on file WAVECAR:
  energy-cutoff  :      700.00
  volume of cell :      294.50
      direct lattice vectors                 reciprocal lattice vectors
     5.469137082  0.000000000  0.000000000     0.182844201  0.000000000  0.000000000
     0.000000000  4.974468770  0.000000000     0.000000000  0.201026491  0.000000000
     0.000000000  0.000000000 10.824668134     0.000000000  0.000000000  0.092381585

  length of vectors

 
 k-points in units of 2pi/SCALE and weight: Automatic mesh                          
   0.00000000  0.00000000  0.00000000       0.009
   0.03047403  0.00000000  0.00000000       0.019
   0.06094807  0.00000000  0.00000000       0.019
   0.09142210  0.00000000  0.00000000       0.009
   0.00000000  0.03351136  0.00000000       0.019
   0.03047403  0.03351136  0.00000000       0.037
   0.06094807  0.03351136  0.00000000       0.037
   0.09142210  0.03351136  0.00000000       0.019
   0.00000000  0.06702271  0.00000000       0.019
   0.03047403  0.06702271  0.00000000       0.037
   0.06094807  0.06702271  0.00000000       0.037
   0.09142210  0.06702271  0.00000000       0.019
   0.00000000  0.10053407  0.00000000       0.009
   0.03047403  0.10053407  0.00000000       0.019
   0.06094807  0.10053407  0.00000000       0.019
   0.09142210  0.10053407  0.00000000       0.009
   0.00000000  0.00000000  0.03079386       0.019
   0.03047403  0.00000000  0.03079386       0.037
   0.06094807  0.00000000  0.03079386       0.037
   0.09142210  0.00000000  0.03079386       0.019
   0.00000000  0.03351136  0.03079386       0.037
   0.03047403  0.03351136  0.03079386       0.037
   0.06094807  0.03351136  0.03079386       0.037
   0.09142210  0.03351136  0.03079386       0.037
  -0.06094807  0.03351136  0.03079386       0.037
  -0.03047403  0.03351136  0.03079386       0.037
   0.00000000  0.06702271  0.03079386       0.037
   0.03047403  0.06702271  0.03079386       0.037
   0.06094807  0.06702271  0.03079386       0.037
   0.09142210  0.06702271  0.03079386       0.037
  -0.06094807  0.06702271  0.03079386       0.037
  -0.03047403  0.06702271  0.03079386       0.037
   0.00000000  0.10053407  0.03079386       0.019
   0.03047403  0.10053407  0.03079386       0.037
   0.06094807  0.10053407  0.03079386       0.037
   0.09142210  0.10053407  0.03079386       0.019
 
 k-points in reciprocal lattice and weights: Automatic mesh                          
   0.00000000  0.00000000  0.00000000       0.009
   0.16666667  0.00000000  0.00000000       0.019
   0.33333333  0.00000000  0.00000000       0.019
   0.50000000  0.00000000  0.00000000       0.009
   0.00000000  0.16666667  0.00000000       0.019
   0.16666667  0.16666667  0.00000000       0.037
   0.33333333  0.16666667  0.00000000       0.037
   0.50000000  0.16666667  0.00000000       0.019
   0.00000000  0.33333333  0.00000000       0.019
   0.16666667  0.33333333  0.00000000       0.037
   0.33333333  0.33333333  0.00000000       0.037
   0.50000000  0.33333333  0.00000000       0.019
   0.00000000  0.50000000  0.00000000       0.009
   0.16666667  0.50000000  0.00000000       0.019
   0.33333333  0.50000000  0.00000000       0.019
   0.50000000  0.50000000  0.00000000       0.009
   0.00000000  0.00000000  0.33333333       0.019
   0.16666667  0.00000000  0.33333333       0.037
   0.33333333  0.00000000  0.33333333       0.037
   0.50000000  0.00000000  0.33333333       0.019
   0.00000000  0.16666667  0.33333333       0.037
   0.16666667  0.16666667  0.33333333       0.037
   0.33333333  0.16666667  0.33333333       0.037
   0.50000000  0.16666667  0.33333333       0.037
  -0.33333333  0.16666667  0.33333333       0.037
  -0.16666667  0.16666667  0.33333333       0.037
   0.00000000  0.33333333  0.33333333       0.037
   0.16666667  0.33333333  0.33333333       0.037
   0.33333333  0.33333333  0.33333333       0.037
   0.50000000  0.33333333  0.33333333       0.037
  -0.33333333  0.33333333  0.33333333       0.037
  -0.16666667  0.33333333  0.33333333       0.037
   0.00000000  0.50000000  0.33333333       0.019
   0.16666667  0.50000000  0.33333333       0.037
   0.33333333  0.50000000  0.33333333       0.037
   0.50000000  0.50000000  0.33333333       0.019
 
 position of ions in fractional coordinates (direct lattice) 
   0.25209091  0.25000000  0.12500000
   0.74790912  0.75000000  0.12500000
   0.25000000  0.74799143  0.87500000
   0.75000000  0.25200860  0.87500000
   0.24790909  0.25000000  0.62500000
   0.75209088  0.75000000  0.62500000
   0.75000000  0.24799140  0.37500000
   0.25000000  0.75200857  0.37500000
   0.00000000  0.00000000  0.49953661
   0.50000000  0.00000000  0.25046339
   0.50000000  0.50000000  0.99953661
   0.00000000  0.50000000  0.75046339
   0.00000000  0.00000000  0.99982695
   0.50000000  0.00000000  0.75017305
   0.50000000  0.50000000  0.49982695
   0.00000000  0.50000000  0.25017305
 
 position of ions in cartesian coordinates  (Angst):
   1.37871974  1.24335962  1.35308352
   4.09041750  3.73007887  1.35308352
   1.36728427  3.72008937  9.47158462
   4.10185281  1.25334927  9.47158462
   1.35584880  1.24335962  6.76541758
   4.11328812  3.73007887  6.76541758
   4.10185281  1.23336997  4.05925055
   1.36728427  3.74006838  4.05925055
   0.00000000  0.00000000  5.40731801
   2.73456854  0.00000000  2.71118309
   2.73456854  2.48671925 10.81965208
   0.00000000  2.48671925  8.12351716
   0.00000000  0.00000000 10.82279494
   2.73456854  0.00000000  8.12037429
   2.73456854  2.48671925  5.41046088
   0.00000000  2.48671925  2.70804022
 
 Euler angles ALPHA=     0.0000000  BETA=     0.0000000

 transformation matrix from SAXIS to cartesian coordinates
 ---------------------------------------------------------
     1.0000000 m_x     0.0000000 m_y     0.0000000 m_z
     0.0000000 m_x     1.0000000 m_y     0.0000000 m_z
     0.0000000 m_x     0.0000000 m_y     1.0000000 m_z

 transformation matrix from cartesian coordinates to SAXIS
 ---------------------------------------------------------
     1.0000000 m_x     0.0000000 m_y     0.0000000 m_z
     0.0000000 m_x     1.0000000 m_y     0.0000000 m_z
     0.0000000 m_x     0.0000000 m_y     1.0000000 m_z




--------------------------------------------------------------------------------------------------------


 k-point  1 :   0.0000 0.0000 0.0000  plane waves:   24786
 k-point  2 :   0.1667 0.0000 0.0000  plane waves:   24766
 k-point  3 :   0.3333 0.0000 0.0000  plane waves:   24828
 k-point  4 :   0.5000 0.0000 0.0000  plane waves:   24760
 k-point  5 :   0.0000 0.1667 0.0000  plane waves:   24734
 k-point  6 :   0.1667 0.1667 0.0000  plane waves:   24754
 k-point  7 :   0.3333 0.1667 0.0000  plane waves:   24786
 k-point  8 :   0.5000 0.1667 0.0000  plane waves:   24804
 k-point  9 :   0.0000 0.3333 0.0000  plane waves:   24764
 k-point 10 :   0.1667 0.3333 0.0000  plane waves:   24764
 k-point 11 :   0.3333 0.3333 0.0000  plane waves:   24758
 k-point 12 :   0.5000 0.3333 0.0000  plane waves:   24816
 k-point 13 :   0.0000 0.5000 0.0000  plane waves:   24844
 k-point 14 :   0.1667 0.5000 0.0000  plane waves:   24772
 k-point 15 :   0.3333 0.5000 0.0000  plane waves:   24788
 k-point 16 :   0.5000 0.5000 0.0000  plane waves:   24720
 k-point 17 :   0.0000 0.0000 0.3333  plane waves:   24686
 k-point 18 :   0.1667 0.0000 0.3333  plane waves:   24756
 k-point 19 :   0.3333 0.0000 0.3333  plane waves:   24796
 k-point 20 :   0.5000 0.0000 0.3333  plane waves:   24808
 k-point 21 :   0.0000 0.1667 0.3333  plane waves:   24748
 k-point 22 :   0.1667 0.1667 0.3333  plane waves:   24752
 k-point 23 :   0.3333 0.1667 0.3333  plane waves:   24760
 k-point 24 :   0.5000 0.1667 0.3333  plane waves:   24792
 k-point 25 :  -0.3333 0.1667 0.3333  plane waves:   24760
 k-point 26 :  -0.1667 0.1667 0.3333  plane waves:   24752
 k-point 27 :   0.0000 0.3333 0.3333  plane waves:   24768
 k-point 28 :   0.1667 0.3333 0.3333  plane waves:   24746
 k-point 29 :   0.3333 0.3333 0.3333  plane waves:   24766
 k-point 30 :   0.5000 0.3333 0.3333  plane waves:   24752
 k-point 31 :  -0.3333 0.3333 0.3333  plane waves:   24766
 k-point 32 :  -0.1667 0.3333 0.3333  plane waves:   24746
 k-point 33 :   0.0000 0.5000 0.3333  plane waves:   24828
 k-point 34 :   0.1667 0.5000 0.3333  plane waves:   24764
 k-point 35 :   0.3333 0.5000 0.3333  plane waves:   24780
 k-point 36 :   0.5000 0.5000 0.3333  plane waves:   24688

 maximum and minimum number of plane-waves per node :       802      722

 maximum number of plane-waves:     24844
 maximum index in each direction: 
   IXMAX=   12   IYMAX=   10   IZMAX=   23
   IXMIN=  -12   IYMIN=  -11   IZMIN=  -23


 parallel 3D FFT for wavefunctions:
    minimum data exchange during FFTs selected (reduces bandwidth)
 parallel 3D FFT for charge:
    minimum data exchange during FFTs selected (reduces bandwidth)


 total amount of memory used by VASP MPI-rank0    81827. kBytes
=======================================================================

   base      :      30000. kBytes
   nonl-proj :       6323. kBytes
   fftplans  :       1447. kBytes
   grid      :       5898. kBytes
   one-center:         62. kBytes
   wavefun   :      38097. kBytes
 
     INWAV:  cpu time    7.7113: real time    7.7975
 Broyden mixing: mesh for mixing (old mesh)
   NGX = 23   NGY = 21   NGZ = 47
  (NGX  = 96   NGY  = 96   NGZ  =192)
  gives a total of  22701 points

 initial charge density was supplied:
 number of electron     171.9999879 magnetization       0.0000000     -0.0000000      0.0000000
 charge density for first step will be calculated from the start-wavefunctions


--------------------------------------------------------------------------------------------------------


 BZINTS: Fermi energy:  4.667406;172.000000 electrons
         Band energy:***********;  BLOECHL correction:  0.000000
 Maximum index for augmentation-charges          969 (set IRDMAX)


--------------------------------------------------------------------------------------------------------


 initial charge from wavefunction
 First call to EWALD:  gamma=   0.266
 Maximum number of real-space cells 3x 4x 2
 Maximum number of reciprocal cells 2x 2x 4

    FEWALD:  cpu time    0.0188: real time    0.0189

 ----------------------------------------------------------------------------- 
|                                                                             |
|           W    W    AA    RRRRR   N    N  II  N    N   GGGG   !!!           |
|           W    W   A  A   R    R  NN   N  II  NN   N  G    G  !!!           |
|           W    W  A    A  R    R  N N  N  II  N N  N  G       !!!           |
|           W WW W  AAAAAA  RRRRR   N  N N  II  N  N N  G  GGG   !            |
|           WW  WW  A    A  R   R   N   NN  II  N   NN  G    G                |
|           W    W  A    A  R    R  N    N  II  N    N   GGGG   !!!           |
|                                                                             |
|      ALGO=A and IALGO=5X tend to fail with the tetrahedron method           |
|      (e.g. Bloechls method ISMEAR=-5 is not variational)                    |
|      please switch to IMSEAR=0-n, except for DOS calculations               |
|      For DOS calculations use IALGO=53 after preconverging with ISMEAR>=0   |
|          I HOPE YOU KNOW, WHAT YOU ARE  DOING                               |
|                                                                             |
 ----------------------------------------------------------------------------- 



--------------------------------------- Iteration      1(   1)  ---------------------------------------


    POTLOK:  cpu time    0.1620: real time    0.1631
    SETDIJ:  cpu time    0.5984: real time    0.6002
    TRIAL :  cpu time    4.1041: real time    4.1496
 BZINTS: Fermi energy:  4.667406;172.000000 electrons
         Band energy:***********;  BLOECHL correction:  0.000000
 BZINTS: Fermi energy:  4.667406;172.000000 electrons
         Band energy:***********;  BLOECHL correction:  0.000000
    CORREC:  cpu time    3.6311: real time    3.6486
    CHARGE:  cpu time    1.0977: real time    1.1032
    --------------------------------------------
      LOOP:  cpu time    9.6058: real time    9.7006

 eigenvalue-minimisations  :     0
 total energy-change (2. order) :-0.8184417E+02  (-0.3114561E-06)
 number of electron     171.9999879 magnetization       0.0000000      0.0000000      0.0000000
 augmentation part       70.5753331 magnetization      -0.0000002     -0.0000003      0.0005319

 Free energy of the ion-electron system (eV)
  ---------------------------------------------------
  alpha Z        PSCENC =       575.49757745
  Ewald energy   TEWEN  =    -15510.28946610
  -Hartree energ DENC   =    -10801.14712754
  -exchange      EXHF   =         0.00000000
  -V(xc)+E(xc)   XCENC  =       820.77250299
  PAW double counting   =     27813.15623673   -28735.60375611
  entropy T*S    EENTRO =         0.00000000
  eigenvalues    EBANDS =     -2749.24641251
  atomic energy  EATOM  =     28505.01627691
  ---------------------------------------------------
  free energy    TOTEN  =       -81.84416817 eV

  energy without entropy =      -81.84416817  energy(sigma->0) =      -81.84416817


--------------------------------------------------------------------------------------------------------




--------------------------------------- Iteration      1(   2)  ---------------------------------------


    POTLOK:  cpu time    0.0882: real time    0.0887
    SETDIJ:  cpu time    0.5964: real time    0.5981
    TRIAL :  cpu time    3.8878: real time    3.9111
 BZINTS: Fermi energy:  4.667406;172.000000 electrons
         Band energy:***********;  BLOECHL correction:  0.000000
 BZINTS: Fermi energy:  4.667406;172.000000 electrons
         Band energy:***********;  BLOECHL correction:  0.000000
    CORREC:  cpu time    3.6191: real time    3.6364
    CHARGE:  cpu time    1.0809: real time    1.0863
    --------------------------------------------
      LOOP:  cpu time    9.2933: real time    9.3424

 eigenvalue-minimisations  :     0
 total energy-change (2. order) :-0.6965762E-05  (-0.1566572E-06)
 number of electron     171.9999879 magnetization       0.0000000      0.0000000      0.0000000
 augmentation part       70.5753330 magnetization      -0.0000002     -0.0000004      0.0005319

 Free energy of the ion-electron system (eV)
  ---------------------------------------------------
  alpha Z        PSCENC =       575.49757745
  Ewald energy   TEWEN  =    -15510.28946610
  -Hartree energ DENC   =    -10801.14708764
  -exchange      EXHF   =         0.00000000
  -V(xc)+E(xc)   XCENC  =       820.77248755
  PAW double counting   =     27813.15608968   -28735.60360735
  entropy T*S    EENTRO =         0.00000000
  eigenvalues    EBANDS =     -2749.24644564
  atomic energy  EATOM  =     28505.01627691
  ---------------------------------------------------
  free energy    TOTEN  =       -81.84417514 eV

  energy without entropy =      -81.84417514  energy(sigma->0) =      -81.84417514


--------------------------------------------------------------------------------------------------------




--------------------------------------- Iteration      1(   3)  ---------------------------------------


    POTLOK:  cpu time    0.0864: real time    0.0869
    SETDIJ:  cpu time    0.5962: real time    0.5981
    TRIAL :  cpu time    3.9303: real time    3.9543
 BZINTS: Fermi energy:  4.667406;172.000000 electrons
         Band energy:***********;  BLOECHL correction:  0.000000
 BZINTS: Fermi energy:  4.667406;172.000000 electrons
         Band energy:***********;  BLOECHL correction:  0.000000
    CORREC:  cpu time    3.6586: real time    3.6765
    CHARGE:  cpu time    1.0774: real time    1.0828
    --------------------------------------------
      LOOP:  cpu time    9.3690: real time    9.4190

 eigenvalue-minimisations  :     0
 total energy-change (2. order) :-0.4300189E-05  (-0.1017806E-06)
 number of electron     171.9999879 magnetization       0.0000000      0.0000000      0.0000000
 augmentation part       70.5753330 magnetization      -0.0000002     -0.0000004      0.0005319

 Free energy of the ion-electron system (eV)
  ---------------------------------------------------
  alpha Z        PSCENC =       575.49757745
  Ewald energy   TEWEN  =    -15510.28946610
  -Hartree energ DENC   =    -10801.14705983
  -exchange      EXHF   =         0.00000000
  -V(xc)+E(xc)   XCENC  =       820.77247782
  PAW double counting   =     27813.15597658   -28735.60349312
  entropy T*S    EENTRO =         0.00000000
  eigenvalues    EBANDS =     -2749.24646916
  atomic energy  EATOM  =     28505.01627691
  ---------------------------------------------------
  free energy    TOTEN  =       -81.84417944 eV

  energy without entropy =      -81.84417944  energy(sigma->0) =      -81.84417944


--------------------------------------------------------------------------------------------------------




--------------------------------------- Iteration      1(   4)  ---------------------------------------


    POTLOK:  cpu time    0.0870: real time    0.0875
    SETDIJ:  cpu time    0.5956: real time    0.5976
    TRIAL :  cpu time    3.9009: real time    3.9247
 BZINTS: Fermi energy:  4.667406;172.000000 electrons
         Band energy:***********;  BLOECHL correction:  0.000000
 BZINTS: Fermi energy:  4.667406;172.000000 electrons
         Band energy:***********;  BLOECHL correction:  0.000000
    CORREC:  cpu time    3.6174: real time    3.6353
    CHARGE:  cpu time    1.0777: real time    1.0831
    --------------------------------------------
      LOOP:  cpu time    9.2983: real time    9.3500

 eigenvalue-minimisations  :     0
 total energy-change (2. order) :-0.3172077E-05  (-0.7747746E-07)
 number of electron     171.9999879 magnetization       0.0000000      0.0000000      0.0000000
 augmentation part       70.5753330 magnetization      -0.0000002     -0.0000003      0.0005319

 Free energy of the ion-electron system (eV)
  ---------------------------------------------------
  alpha Z        PSCENC =       575.49757745
  Ewald energy   TEWEN  =    -15510.28946610
  -Hartree energ DENC   =    -10801.14703719
  -exchange      EXHF   =         0.00000000
  -V(xc)+E(xc)   XCENC  =       820.77247055
  PAW double counting   =     27813.15587650   -28735.60339215
  entropy T*S    EENTRO =         0.00000000
  eigenvalues    EBANDS =     -2749.24648859
  atomic energy  EATOM  =     28505.01627691
  ---------------------------------------------------
  free energy    TOTEN  =       -81.84418261 eV

  energy without entropy =      -81.84418261  energy(sigma->0) =      -81.84418261


--------------------------------------------------------------------------------------------------------




--------------------------------------- Iteration      1(   5)  ---------------------------------------


    POTLOK:  cpu time    0.0867: real time    0.0872
    SETDIJ:  cpu time    0.5956: real time    0.5975
    TRIAL :  cpu time    3.9395: real time    3.9629
 BZINTS: Fermi energy:  4.667406;172.000000 electrons
         Band energy:***********;  BLOECHL correction:  0.000000
 BZINTS: Fermi energy:  4.667406;172.000000 electrons
         Band energy:***********;  BLOECHL correction:  0.000000
    CORREC:  cpu time    3.6014: real time    3.6287
    CHARGE:  cpu time    1.0749: real time    1.0802
    --------------------------------------------
      LOOP:  cpu time    9.3173: real time    9.3778

 eigenvalue-minimisations  :     0
 total energy-change (2. order) :-0.2667683E-05  (-0.6445219E-07)
 number of electron     171.9999879 magnetization       0.0000000      0.0000000      0.0000000
 augmentation part       70.5753330 magnetization      -0.0000002     -0.0000003      0.0005319

 Free energy of the ion-electron system (eV)
  ---------------------------------------------------
  alpha Z        PSCENC =       575.49757745
  Ewald energy   TEWEN  =    -15510.28946610
  -Hartree energ DENC   =    -10801.14701694
  -exchange      EXHF   =         0.00000000
  -V(xc)+E(xc)   XCENC  =       820.77246439
  PAW double counting   =     27813.15577998   -28735.60329487
  entropy T*S    EENTRO =         0.00000000
  eigenvalues    EBANDS =     -2749.24650611
  atomic energy  EATOM  =     28505.01627691
  ---------------------------------------------------
  free energy    TOTEN  =       -81.84418528 eV

  energy without entropy =      -81.84418528  energy(sigma->0) =      -81.84418528


--------------------------------------------------------------------------------------------------------




--------------------------------------- Iteration      1(   6)  ---------------------------------------


    POTLOK:  cpu time    0.0897: real time    0.0902
    SETDIJ:  cpu time    0.5961: real time    0.5978
    TRIAL :  cpu time    3.9242: real time    3.9477
 BZINTS: Fermi energy:  4.667406;172.000000 electrons
         Band energy:***********;  BLOECHL correction:  0.000000
 BZINTS: Fermi energy:  4.667406;172.000000 electrons
         Band energy:***********;  BLOECHL correction:  0.000000
    CORREC:  cpu time    3.6269: real time    3.6443
    CHARGE:  cpu time    1.0802: real time    1.0855
    --------------------------------------------
      LOOP:  cpu time    9.3341: real time    9.3862

 eigenvalue-minimisations  :     0
 total energy-change (2. order) :-0.2352346E-05  (-0.5771519E-07)
 number of electron     171.9999879 magnetization       0.0000000      0.0000000      0.0000000
 augmentation part       70.5753330 magnetization      -0.0000002     -0.0000003      0.0005319

 Free energy of the ion-electron system (eV)
  ---------------------------------------------------
  alpha Z        PSCENC =       575.49757745
  Ewald energy   TEWEN  =    -15510.28946610
  -Hartree energ DENC   =    -10801.14699783
  -exchange      EXHF   =         0.00000000
  -V(xc)+E(xc)   XCENC  =       820.77245891
  PAW double counting   =     27813.15568177   -28735.60319600
  entropy T*S    EENTRO =         0.00000000
  eigenvalues    EBANDS =     -2749.24652274
  atomic energy  EATOM  =     28505.01627691
  ---------------------------------------------------
  free energy    TOTEN  =       -81.84418763 eV

  energy without entropy =      -81.84418763  energy(sigma->0) =      -81.84418763


--------------------------------------------------------------------------------------------------------




--------------------------------------- Iteration      1(   7)  ---------------------------------------


    POTLOK:  cpu time    0.0861: real time    0.0866
    SETDIJ:  cpu time    0.5956: real time    0.5976
    TRIAL :  cpu time    3.9276: real time    3.9513
 BZINTS: Fermi energy:  4.667406;172.000000 electrons
         Band energy:***********;  BLOECHL correction:  0.000000
 BZINTS: Fermi energy:  4.667406;172.000000 electrons
         Band energy:***********;  BLOECHL correction:  0.000000
    CORREC:  cpu time    3.5936: real time    3.6108
    CHARGE:  cpu time    1.0815: real time    1.0867
    --------------------------------------------
      LOOP:  cpu time    9.3031: real time    9.3547

 eigenvalue-minimisations  :     0
 total energy-change (2. order) :-0.1925611E-05  (-0.7946300E-07)
 number of electron     171.9999879 magnetization       0.0000000      0.0000000      0.0000000
 augmentation part       70.5753329 magnetization      -0.0000002     -0.0000002      0.0005319

 Free energy of the ion-electron system (eV)
  ---------------------------------------------------
  alpha Z        PSCENC =       575.49757745
  Ewald energy   TEWEN  =    -15510.28946610
  -Hartree energ DENC   =    -10801.14697878
  -exchange      EXHF   =         0.00000000
  -V(xc)+E(xc)   XCENC  =       820.77245436
  PAW double counting   =     27813.15557492   -28735.60308862
  entropy T*S    EENTRO =         0.00000000
  eigenvalues    EBANDS =     -2749.24653970
  atomic energy  EATOM  =     28505.01627691
  ---------------------------------------------------
  free energy    TOTEN  =       -81.84418955 eV

  energy without entropy =      -81.84418955  energy(sigma->0) =      -81.84418955


--------------------------------------------------------------------------------------------------------




--------------------------------------- Iteration      1(   8)  ---------------------------------------


    POTLOK:  cpu time    0.0865: real time    0.0870
    SETDIJ:  cpu time    0.5939: real time    0.5958
    TRIAL :  cpu time    3.8906: real time    3.9138
 BZINTS: Fermi energy:  4.667406;172.000000 electrons
         Band energy:***********;  BLOECHL correction:  0.000000
 BZINTS: Fermi energy:  4.667406;172.000000 electrons
         Band energy:***********;  BLOECHL correction:  0.000000
    CORREC:  cpu time    3.6142: real time    3.6315
    CHARGE:  cpu time    1.0869: real time    1.0923
    --------------------------------------------
      LOOP:  cpu time    9.2936: real time    9.3431

 eigenvalue-minimisations  :     0
 total energy-change (2. order) :-0.2947447E-05  (-0.1985989E-06)
 number of electron     171.9999879 magnetization       0.0000000      0.0000000      0.0000000
 augmentation part       70.5753329 magnetization      -0.0000001      0.0000000      0.0005319

 Free energy of the ion-electron system (eV)
  ---------------------------------------------------
  alpha Z        PSCENC =       575.49757745
  Ewald energy   TEWEN  =    -15510.28946610
  -Hartree energ DENC   =    -10801.14695056
  -exchange      EXHF   =         0.00000000
  -V(xc)+E(xc)   XCENC  =       820.77244737
  PAW double counting   =     27813.15539976   -28735.60291297
  entropy T*S    EENTRO =         0.00000000
  eigenvalues    EBANDS =     -2749.24656436
  atomic energy  EATOM  =     28505.01627691
  ---------------------------------------------------
  free energy    TOTEN  =       -81.84419250 eV

  energy without entropy =      -81.84419250  energy(sigma->0) =      -81.84419250


--------------------------------------------------------------------------------------------------------




--------------------------------------- Iteration      1(   9)  ---------------------------------------


    POTLOK:  cpu time    0.0862: real time    0.0867
    SETDIJ:  cpu time    0.5964: real time    0.5983
    TRIAL :  cpu time    3.8393: real time    3.8624
 BZINTS: Fermi energy:  4.667406;172.000000 electrons
         Band energy:***********;  BLOECHL correction:  0.000000
 BZINTS: Fermi energy:  4.667406;172.000000 electrons
         Band energy:***********;  BLOECHL correction:  0.000000
    CORREC:  cpu time    3.5949: real time    3.6128
    CHARGE:  cpu time    1.0943: real time    1.0997
    --------------------------------------------
      LOOP:  cpu time    9.2270: real time    9.2796

 eigenvalue-minimisations  :     0
 total energy-change (2. order) : 0.3123569E-06  (-0.4770220E-08)
 number of electron     171.9999879 magnetization       0.0000000      0.0000000      0.0000000
 augmentation part       70.5753329 magnetization      -0.0000001      0.0000000      0.0005319

 Free energy of the ion-electron system (eV)
  ---------------------------------------------------
  alpha Z        PSCENC =       575.49757745
  Ewald energy   TEWEN  =    -15510.28946610
  -Hartree energ DENC   =    -10801.14687953
  -exchange      EXHF   =         0.00000000
  -V(xc)+E(xc)   XCENC  =       820.77244647
  PAW double counting   =     27813.15484674   -28735.60236128
  entropy T*S    EENTRO =         0.00000000
  eigenvalues    EBANDS =     -2749.24663286
  atomic energy  EATOM  =     28505.01627691
  ---------------------------------------------------
  free energy    TOTEN  =       -81.84419219 eV

  energy without entropy =      -81.84419219  energy(sigma->0) =      -81.84419219


--------------------------------------------------------------------------------------------------------




--------------------------------------- Iteration      1(  10)  ---------------------------------------


    POTLOK:  cpu time    0.0881: real time    0.0887
    SETDIJ:  cpu time    0.5970: real time    0.5990
    TRIAL :  cpu time    3.8899: real time    3.9136
 BZINTS: Fermi energy:  4.667406;172.000000 electrons
         Band energy:***********;  BLOECHL correction:  0.000000
 BZINTS: Fermi energy:  4.667406;172.000000 electrons
         Band energy:***********;  BLOECHL correction:  0.000000
    CORREC:  cpu time    3.5919: real time    3.6095
    CHARGE:  cpu time    1.0756: real time    1.0809
    --------------------------------------------
      LOOP:  cpu time    9.2617: real time    9.3132

 eigenvalue-minimisations  :     0
 total energy-change (2. order) :-0.5019319E-07  (-0.9565063E-08)
 number of electron     171.9999879 magnetization       0.0000000      0.0000000      0.0000000
 augmentation part       70.5753329 magnetization      -0.0000001      0.0000000      0.0005319

 Free energy of the ion-electron system (eV)
  ---------------------------------------------------
  alpha Z        PSCENC =       575.49757745
  Ewald energy   TEWEN  =    -15510.28946610
  -Hartree energ DENC   =    -10801.14687692
  -exchange      EXHF   =         0.00000000
  -V(xc)+E(xc)   XCENC  =       820.77244632
  PAW double counting   =     27813.15481694   -28735.60233176
  entropy T*S    EENTRO =         0.00000000
  eigenvalues    EBANDS =     -2749.24663508
  atomic energy  EATOM  =     28505.01627691
  ---------------------------------------------------
  free energy    TOTEN  =       -81.84419224 eV

  energy without entropy =      -81.84419224  energy(sigma->0) =      -81.84419224


--------------------------------------------------------------------------------------------------------




--------------------------------------- Iteration      1(  11)  ---------------------------------------


    POTLOK:  cpu time    0.0862: real time    0.0869
    SETDIJ:  cpu time    0.5961: real time    0.5979
    TRIAL :  cpu time    3.9079: real time    3.9318
 BZINTS: Fermi energy:  4.667406;172.000000 electrons
         Band energy:***********;  BLOECHL correction:  0.000000
 BZINTS: Fermi energy:  4.667406;172.000000 electrons
         Band energy:***********;  BLOECHL correction:  0.000000
    CORREC:  cpu time    3.6257: real time    3.6434
    CHARGE:  cpu time    1.0783: real time    1.0837
    --------------------------------------------
      LOOP:  cpu time    9.3120: real time    9.3655

 eigenvalue-minimisations  :     0
 total energy-change (2. order) :-0.3392306E-06  (-0.1507159E-07)
 number of electron     171.9999879 magnetization       0.0000000      0.0000000      0.0000000
 augmentation part       70.5753329 magnetization      -0.0000001     -0.0000000      0.0005319

 Free energy of the ion-electron system (eV)
  ---------------------------------------------------
  alpha Z        PSCENC =       575.49757745
  Ewald energy   TEWEN  =    -15510.28946610
  -Hartree energ DENC   =    -10801.14687564
  -exchange      EXHF   =         0.00000000
  -V(xc)+E(xc)   XCENC  =       820.77244557
  PAW double counting   =     27813.15479254   -28735.60230774
  entropy T*S    EENTRO =         0.00000000
  eigenvalues    EBANDS =     -2749.24663558
  atomic energy  EATOM  =     28505.01627691
  ---------------------------------------------------
  free energy    TOTEN  =       -81.84419258 eV

  energy without entropy =      -81.84419258  energy(sigma->0) =      -81.84419258


--------------------------------------------------------------------------------------------------------




--------------------------------------- Iteration      1(  12)  ---------------------------------------


    POTLOK:  cpu time    0.0864: real time    0.0870
    SETDIJ:  cpu time    0.5960: real time    0.5979
    TRIAL :  cpu time    3.8471: real time    3.8707
 BZINTS: Fermi energy:  4.667406;172.000000 electrons
         Band energy:***********;  BLOECHL correction:  0.000000
 BZINTS: Fermi energy:  4.667406;172.000000 electrons
         Band energy:***********;  BLOECHL correction:  0.000000
    CORREC:  cpu time    3.5919: real time    3.6096
    CHARGE:  cpu time    1.0797: real time    1.0850
    --------------------------------------------
      LOOP:  cpu time    9.2200: real time    9.2710

 eigenvalue-minimisations  :     0
 total energy-change (2. order) :-0.8516654E-06  (-0.1053614E-07)
 number of electron     171.9999879 magnetization       0.0000000      0.0000000      0.0000000
 augmentation part       70.5753329 magnetization      -0.0000001     -0.0000000      0.0005319

 Free energy of the ion-electron system (eV)
  ---------------------------------------------------
  alpha Z        PSCENC =       575.49757745
  Ewald energy   TEWEN  =    -15510.28946610
  -Hartree energ DENC   =    -10801.14687719
  -exchange      EXHF   =         0.00000000
  -V(xc)+E(xc)   XCENC  =       820.77244376
  PAW double counting   =     27813.15478467   -28735.60230031
  entropy T*S    EENTRO =         0.00000000
  eigenvalues    EBANDS =     -2749.24663263
  atomic energy  EATOM  =     28505.01627691
  ---------------------------------------------------
  free energy    TOTEN  =       -81.84419343 eV

  energy without entropy =      -81.84419343  energy(sigma->0) =      -81.84419343


--------------------------------------------------------------------------------------------------------




--------------------------------------- Iteration      1(  13)  ---------------------------------------


    POTLOK:  cpu time    0.0911: real time    0.0916
    SETDIJ:  cpu time    0.5955: real time    0.5976
    TRIAL :  cpu time    3.8922: real time    3.9161
 BZINTS: Fermi energy:  4.667406;172.000000 electrons
         Band energy:***********;  BLOECHL correction:  0.000000
 BZINTS: Fermi energy:  4.667406;172.000000 electrons
         Band energy:***********;  BLOECHL correction:  0.000000
    CORREC:  cpu time    3.6021: real time    3.6198
    CHARGE:  cpu time    1.0798: real time    1.0853
    --------------------------------------------
      LOOP:  cpu time    9.2807: real time    9.3313

 eigenvalue-minimisations  :     0
 total energy-change (2. order) :-0.8158459E-06  (-0.5832311E-08)
 number of electron     171.9999879 magnetization       0.0000000      0.0000000      0.0000000
 augmentation part       70.5753329 magnetization      -0.0000001     -0.0000001      0.0005319

 Free energy of the ion-electron system (eV)
  ---------------------------------------------------
  alpha Z        PSCENC =       575.49757745
  Ewald energy   TEWEN  =    -15510.28946610
  -Hartree energ DENC   =    -10801.14687837
  -exchange      EXHF   =         0.00000000
  -V(xc)+E(xc)   XCENC  =       820.77244199
  PAW double counting   =     27813.15477697   -28735.60229297
  entropy T*S    EENTRO =         0.00000000
  eigenvalues    EBANDS =     -2749.24663014
  atomic energy  EATOM  =     28505.01627691
  ---------------------------------------------------
  free energy    TOTEN  =       -81.84419425 eV

  energy without entropy =      -81.84419425  energy(sigma->0) =      -81.84419425


--------------------------------------------------------------------------------------------------------




--------------------------------------- Iteration      1(  14)  ---------------------------------------


    POTLOK:  cpu time    0.0867: real time    0.0872
    SETDIJ:  cpu time    0.5956: real time    0.5976
    TRIAL :  cpu time    3.8632: real time    3.8865
 BZINTS: Fermi energy:  4.667406;172.000000 electrons
         Band energy:***********;  BLOECHL correction:  0.000000
 BZINTS: Fermi energy:  4.667406;172.000000 electrons
         Band energy:***********;  BLOECHL correction:  0.000000
    CORREC:  cpu time    3.5969: real time    3.6142
    CHARGE:  cpu time    1.0926: real time    1.0981
    --------------------------------------------
      LOOP:  cpu time    9.2511: real time    9.3035

 eigenvalue-minimisations  :     0
 total energy-change (2. order) :-0.8065181E-06  (-0.3161420E-08)
 number of electron     171.9999879 magnetization       0.0000000      0.0000000      0.0000000
 augmentation part       70.5753329 magnetization      -0.0000001     -0.0000001      0.0005319

 Free energy of the ion-electron system (eV)
  ---------------------------------------------------
  alpha Z        PSCENC =       575.49757745
  Ewald energy   TEWEN  =    -15510.28946610
  -Hartree energ DENC   =    -10801.14687909
  -exchange      EXHF   =         0.00000000
  -V(xc)+E(xc)   XCENC  =       820.77244019
  PAW double counting   =     27813.15477128   -28735.60228751
  entropy T*S    EENTRO =         0.00000000
  eigenvalues    EBANDS =     -2749.24662818
  atomic energy  EATOM  =     28505.01627691
  ---------------------------------------------------
  free energy    TOTEN  =       -81.84419505 eV

  energy without entropy =      -81.84419505  energy(sigma->0) =      -81.84419505


--------------------------------------------------------------------------------------------------------




--------------------------------------- Iteration      1(  15)  ---------------------------------------


    POTLOK:  cpu time    0.0873: real time    0.0878
    SETDIJ:  cpu time    0.5960: real time    0.5979
    TRIAL :  cpu time    3.8720: real time    3.8954
 BZINTS: Fermi energy:  4.667406;172.000000 electrons
         Band energy:***********;  BLOECHL correction:  0.000000
 BZINTS: Fermi energy:  4.667406;172.000000 electrons
         Band energy:***********;  BLOECHL correction:  0.000000
    CORREC:  cpu time    3.6137: real time    3.6316
    CHARGE:  cpu time    1.0868: real time    1.0923
    --------------------------------------------
      LOOP:  cpu time    9.2729: real time    9.3259

 eigenvalue-minimisations  :     0
 total energy-change (2. order) :-0.7231174E-06  (-0.1693002E-08)
 number of electron     171.9999879 magnetization       0.0000000      0.0000000      0.0000000
 augmentation part       70.5753329 magnetization      -0.0000001     -0.0000001      0.0005319

 Free energy of the ion-electron system (eV)
  ---------------------------------------------------
  alpha Z        PSCENC =       575.49757745
  Ewald energy   TEWEN  =    -15510.28946610
  -Hartree energ DENC   =    -10801.14687950
  -exchange      EXHF   =         0.00000000
  -V(xc)+E(xc)   XCENC  =       820.77243857
  PAW double counting   =     27813.15476760   -28735.60228398
  entropy T*S    EENTRO =         0.00000000
  eigenvalues    EBANDS =     -2749.24662673
  atomic energy  EATOM  =     28505.01627691
  ---------------------------------------------------
  free energy    TOTEN  =       -81.84419578 eV

  energy without entropy =      -81.84419578  energy(sigma->0) =      -81.84419578


--------------------------------------------------------------------------------------------------------




--------------------------------------- Iteration      1(  16)  ---------------------------------------


    POTLOK:  cpu time    0.0861: real time    0.0865
    SETDIJ:  cpu time    0.5960: real time    0.5980
    TRIAL :  cpu time    3.8658: real time    3.8893
 BZINTS: Fermi energy:  4.667406;172.000000 electrons
         Band energy:***********;  BLOECHL correction:  0.000000
 BZINTS: Fermi energy:  4.667406;172.000000 electrons
         Band energy:***********;  BLOECHL correction:  0.000000
    CORREC:  cpu time    3.6225: real time    3.6401
    CHARGE:  cpu time    1.0871: real time    1.0926
    --------------------------------------------
      LOOP:  cpu time    9.2752: real time    9.3274

 eigenvalue-minimisations  :     0
 total energy-change (2. order) :-0.3896384E-06  (-0.1359448E-08)
 number of electron     171.9999879 magnetization       0.0000000      0.0000000      0.0000000
 augmentation part       70.5753329 magnetization      -0.0000001     -0.0000001      0.0005319

 Free energy of the ion-electron system (eV)
  ---------------------------------------------------
  alpha Z        PSCENC =       575.49757745
  Ewald energy   TEWEN  =    -15510.28946610
  -Hartree energ DENC   =    -10801.14687975
  -exchange      EXHF   =         0.00000000
  -V(xc)+E(xc)   XCENC  =       820.77243770
  PAW double counting   =     27813.15476537   -28735.60228183
  entropy T*S    EENTRO =         0.00000000
  eigenvalues    EBANDS =     -2749.24662591
  atomic energy  EATOM  =     28505.01627691
  ---------------------------------------------------
  free energy    TOTEN  =       -81.84419616 eV

  energy without entropy =      -81.84419616  energy(sigma->0) =      -81.84419616


--------------------------------------------------------------------------------------------------------




--------------------------------------- Iteration      1(  17)  ---------------------------------------


    POTLOK:  cpu time    0.0870: real time    0.0874
    SETDIJ:  cpu time    0.5958: real time    0.5975
    TRIAL :  cpu time    3.8558: real time    3.8790
 BZINTS: Fermi energy:  4.667406;172.000000 electrons
         Band energy:***********;  BLOECHL correction:  0.000000
 BZINTS: Fermi energy:  4.667406;172.000000 electrons
         Band energy:***********;  BLOECHL correction:  0.000000
    CORREC:  cpu time    3.6533: real time    3.6710
    CHARGE:  cpu time    1.0902: real time    1.0956
    --------------------------------------------
      LOOP:  cpu time    9.3001: real time    9.3514

 eigenvalue-minimisations  :     0
 total energy-change (2. order) :-0.3393143E-06  (-0.1158275E-08)
 number of electron     171.9999879 magnetization       0.0000000      0.0000000      0.0000000
 augmentation part       70.5753329 magnetization      -0.0000001     -0.0000001      0.0005319

 Free energy of the ion-electron system (eV)
  ---------------------------------------------------
  alpha Z        PSCENC =       575.49757745
  Ewald energy   TEWEN  =    -15510.28946610
  -Hartree energ DENC   =    -10801.14687998
  -exchange      EXHF   =         0.00000000
  -V(xc)+E(xc)   XCENC  =       820.77243695
  PAW double counting   =     27813.15476356   -28735.60228010
  entropy T*S    EENTRO =         0.00000000
  eigenvalues    EBANDS =     -2749.24662520
  atomic energy  EATOM  =     28505.01627691
  ---------------------------------------------------
  free energy    TOTEN  =       -81.84419650 eV

  energy without entropy =      -81.84419650  energy(sigma->0) =      -81.84419650


--------------------------------------------------------------------------------------------------------




--------------------------------------- Iteration      1(  18)  ---------------------------------------


    POTLOK:  cpu time    0.0866: real time    0.0871
    SETDIJ:  cpu time    0.5960: real time    0.5979
    TRIAL :  cpu time    3.8774: real time    3.9009
 BZINTS: Fermi energy:  4.667406;172.000000 electrons
         Band energy:***********;  BLOECHL correction:  0.000000
 BZINTS: Fermi energy:  4.667406;172.000000 electrons
         Band energy:***********;  BLOECHL correction:  0.000000
    CORREC:  cpu time    3.5952: real time    3.6127
    CHARGE:  cpu time    1.0811: real time    1.0866
    --------------------------------------------
      LOOP:  cpu time    9.2570: real time    9.3063

 eigenvalue-minimisations  :     0
 total energy-change (2. order) :-0.2841552E-06  (-0.8378261E-09)
 number of electron     171.9999879 magnetization       0.0000000      0.0000000      0.0000000
 augmentation part       70.5753329 magnetization      -0.0000001     -0.0000001      0.0005319

 Free energy of the ion-electron system (eV)
  ---------------------------------------------------
  alpha Z        PSCENC =       575.49757745
  Ewald energy   TEWEN  =    -15510.28946610
  -Hartree energ DENC   =    -10801.14688020
  -exchange      EXHF   =         0.00000000
  -V(xc)+E(xc)   XCENC  =       820.77243632
  PAW double counting   =     27813.15476213   -28735.60227873
  entropy T*S    EENTRO =         0.00000000
  eigenvalues    EBANDS =     -2749.24662456
  atomic energy  EATOM  =     28505.01627691
  ---------------------------------------------------
  free energy    TOTEN  =       -81.84419679 eV

  energy without entropy =      -81.84419679  energy(sigma->0) =      -81.84419679


--------------------------------------------------------------------------------------------------------




--------------------------------------- Iteration      1(  19)  ---------------------------------------


    POTLOK:  cpu time    0.0880: real time    0.0886
    SETDIJ:  cpu time    0.5957: real time    0.5976
    TRIAL :  cpu time    3.8478: real time    3.8712
 BZINTS: Fermi energy:  4.667406;172.000000 electrons
         Band energy:***********;  BLOECHL correction:  0.000000
 BZINTS: Fermi energy:  4.667406;172.000000 electrons
         Band energy:***********;  BLOECHL correction:  0.000000
    CORREC:  cpu time    3.5919: real time    3.6092
    CHARGE:  cpu time    1.0810: real time    1.0863
    --------------------------------------------
      LOOP:  cpu time    9.2243: real time    9.2740

 eigenvalue-minimisations  :     0
 total energy-change (2. order) :-0.2402194E-06  (-0.8482199E-09)
 number of electron     171.9999879 magnetization       0.0000000      0.0000000      0.0000000
 augmentation part       70.5753329 magnetization      -0.0000001     -0.0000001      0.0005319

 Free energy of the ion-electron system (eV)
  ---------------------------------------------------
  alpha Z        PSCENC =       575.49757745
  Ewald energy   TEWEN  =    -15510.28946610
  -Hartree energ DENC   =    -10801.14688037
  -exchange      EXHF   =         0.00000000
  -V(xc)+E(xc)   XCENC  =       820.77243578
  PAW double counting   =     27813.15476099   -28735.60227765
  entropy T*S    EENTRO =         0.00000000
  eigenvalues    EBANDS =     -2749.24662404
  atomic energy  EATOM  =     28505.01627691
  ---------------------------------------------------
  free energy    TOTEN  =       -81.84419703 eV

  energy without entropy =      -81.84419703  energy(sigma->0) =      -81.84419703


--------------------------------------------------------------------------------------------------------




--------------------------------------- Iteration      1(  20)  ---------------------------------------


    POTLOK:  cpu time    0.0862: real time    0.0867
    SETDIJ:  cpu time    0.5956: real time    0.5977
    TRIAL :  cpu time    3.8948: real time    3.9181
 BZINTS: Fermi energy:  4.667406;172.000000 electrons
         Band energy:***********;  BLOECHL correction:  0.000000
 BZINTS: Fermi energy:  4.667406;172.000000 electrons
         Band energy:***********;  BLOECHL correction:  0.000000
    CORREC:  cpu time    3.5982: real time    3.6154
    CHARGE:  cpu time    1.0790: real time    1.0845
    --------------------------------------------
      LOOP:  cpu time    9.2745: real time    9.3238

 eigenvalue-minimisations  :     0
 total energy-change (2. order) :-0.2376255E-06  (-0.6168208E-09)
 number of electron     171.9999879 magnetization       0.0000000      0.0000000      0.0000000
 augmentation part       70.5753329 magnetization      -0.0000001     -0.0000001      0.0005319

 Free energy of the ion-electron system (eV)
  ---------------------------------------------------
[...]
  0.000  -0.000   0.000  -0.000   0.000  -0.000   0.000  -0.000  -0.000   0.000   0.000  -0.000   0.000  -0.000  -0.000   0.000
 pseudopotential strength for first ion, spin component:           3
 -0.000  -0.000  -0.000  -0.000  -0.000  -0.000  -0.000  -0.000   0.000   0.000  -0.000  -0.000  -0.000  -0.000   0.000   0.000
 -0.000  -0.000  -0.000  -0.000  -0.000  -0.000  -0.000  -0.000   0.000   0.000  -0.000  -0.000  -0.000  -0.000   0.000   0.000
 -0.000  -0.000  -0.000  -0.000  -0.000  -0.000  -0.000  -0.000   0.000   0.000  -0.000  -0.000  -0.000  -0.000   0.000   0.000
 -0.000  -0.000  -0.000  -0.000  -0.000  -0.000  -0.000   0.000   0.000   0.000  -0.000  -0.000  -0.000   0.000   0.000   0.000
  0.000   0.000   0.000   0.000   0.000   0.000   0.000   0.000  -0.000  -0.000   0.000   0.000   0.000   0.000  -0.000  -0.000
 -0.000  -0.000  -0.000  -0.000  -0.000  -0.000  -0.000  -0.000   0.000   0.000  -0.000  -0.000  -0.000  -0.000   0.000   0.000
 -0.000  -0.000  -0.000  -0.000  -0.000  -0.000  -0.000   0.000   0.000   0.000  -0.000  -0.000  -0.000   0.000   0.000   0.000
  0.000   0.000   0.000   0.000   0.000   0.000   0.000   0.000  -0.000  -0.000   0.000   0.000   0.000   0.000  -0.000  -0.000
 pseudopotential strength for first ion, spin component:           4
 39.571   0.000  45.445   0.000  -0.000   0.000  -0.001   0.000  -0.004   0.000  -0.000   0.000  -0.001   0.000  -0.005   0.000
 45.445   0.000  52.193   0.000  -0.000   0.000  -0.001   0.000  -0.004   0.000  -0.000   0.000  -0.001   0.000  -0.006   0.000
 -0.000   0.000  -0.000   0.000   8.211   0.000   0.002   0.000  -0.001   0.000  11.130   0.000   0.002   0.000  -0.001   0.000
 -0.001   0.000  -0.001   0.000   0.002   0.000   8.213   0.000  -0.000   0.000   0.002   0.000  11.132   0.000  -0.001   0.000
 -0.004   0.000  -0.004   0.000  -0.001   0.000  -0.000   0.000   8.213   0.000  -0.001   0.000  -0.001   0.000  11.133   0.000
 -0.000   0.000  -0.000   0.000  11.130   0.000   0.002   0.000  -0.001   0.000  15.105   0.000   0.003   0.000  -0.001   0.000
 -0.001   0.000  -0.001   0.000   0.002   0.000  11.132   0.000  -0.001   0.000   0.003   0.000  15.109   0.000  -0.001   0.000
 -0.005   0.000  -0.006   0.000  -0.001   0.000  -0.001   0.000  11.133   0.000  -0.001   0.000  -0.001   0.000  15.109   0.000
 total augmentation occupancy for first ion, spin component:           1
 10.480  -6.458  -0.000   0.000  -0.608  -0.000  -0.000   0.172
 -6.458   4.688   0.000   0.000   0.502   0.000   0.000  -0.111
 -0.000   0.000   3.434   0.080   0.000  -0.922  -0.043   0.000
  0.000   0.000   0.080   3.600   0.000  -0.043  -1.014  -0.000
 -0.608   0.502   0.000   0.000   3.620   0.000  -0.000  -1.026
 -0.000   0.000  -0.922  -0.043   0.000   0.302   0.015   0.000
 -0.000   0.000  -0.043  -1.014  -0.000   0.015   0.336   0.000
  0.172  -0.111   0.000  -0.000  -1.026   0.000   0.000   0.341
 total augmentation occupancy for first ion, spin component:           2
  0.000  -0.000   0.000  -0.000  -0.000   0.000   0.000   0.000
 -0.000   0.000  -0.000   0.000   0.000  -0.000   0.000  -0.000
  0.000  -0.000   0.000  -0.000   0.000  -0.000  -0.000  -0.000
 -0.000   0.000  -0.000  -0.000   0.000   0.000   0.000   0.000
 -0.000   0.000   0.000   0.000  -0.000   0.000   0.000   0.000
  0.000  -0.000  -0.000   0.000   0.000   0.000  -0.000  -0.000
 -0.000  -0.000  -0.000   0.000   0.000  -0.000  -0.000   0.000
  0.000  -0.000  -0.000   0.000   0.000  -0.000  -0.000  -0.000
 total augmentation occupancy for first ion, spin component:           3
  0.000   0.000   0.000  -0.000   0.000  -0.000   0.000   0.000
  0.000  -0.000  -0.000   0.000  -0.000   0.000  -0.000   0.000
  0.000  -0.000   0.000  -0.000  -0.000   0.000  -0.000   0.000
 -0.000   0.000  -0.000  -0.000   0.000  -0.000  -0.000  -0.000
  0.000  -0.000  -0.000   0.000   0.000   0.000  -0.000   0.000
 -0.000   0.000  -0.000   0.000   0.000   0.000   0.000  -0.000
  0.000  -0.000   0.000  -0.000  -0.000   0.000  -0.000   0.000
 -0.000  -0.000   0.000  -0.000   0.000  -0.000   0.000   0.000
 total augmentation occupancy for first ion, spin component:           4
  0.000  -0.000   0.131   0.105  -0.000   0.070   0.071  -0.000
  0.000   0.000  -0.108  -0.084   0.000  -0.080  -0.079   0.000
  0.131  -0.108  -0.000   0.000   0.004   0.000  -0.000  -0.001
  0.105  -0.084   0.000  -0.000   0.007  -0.000   0.000  -0.004
 -0.000   0.000   0.004   0.007   0.000  -0.001  -0.004  -0.000
  0.070  -0.080   0.000   0.000  -0.001  -0.000   0.000   0.013
  0.071  -0.079   0.000   0.000  -0.004   0.000   0.000   0.014
 -0.000   0.000  -0.001  -0.004  -0.000   0.013   0.014  -0.000


------------------------ aborting loop because EDIFF is reached ----------------------------------------


 


 total charge     
 
# of ion       s       p       d       tot
------------------------------------------
    1        1.314   2.397   0.000   3.711
    2        1.314   2.397   0.000   3.711
    3        1.314   2.401   0.000   3.714
    4        1.314   2.401   0.000   3.714
    5        1.314   2.397   0.000   3.711
    6        1.314   2.397   0.000   3.711
    7        1.314   2.401   0.000   3.714
    8        1.314   2.401   0.000   3.714
    9        0.252   6.190   8.920  15.362
   10        0.252   6.190   8.920  15.362
   11        0.252   6.190   8.920  15.362
   12        0.252   6.190   8.920  15.362
   13        0.343   6.335   5.801  12.480
   14        0.343   6.335   5.802  12.480
   15        0.343   6.335   5.801  12.480
   16        0.343   6.335   5.802  12.480
--------------------------------------------------
tot         12.891  69.295  58.885 141.071
 


 magnetization (x)
 
# of ion       s       p       d       tot
------------------------------------------
    1       -0.000   0.000   0.000   0.000
    2        0.000  -0.000   0.000  -0.000
    3        0.000  -0.000   0.000  -0.000
    4        0.000  -0.000   0.000  -0.000
    5        0.000  -0.000   0.000  -0.000
    6       -0.000   0.000   0.000   0.000
    7        0.000  -0.000   0.000  -0.000
    8        0.000  -0.000   0.000  -0.000
    9        0.000  -0.000   0.000   0.000
   10       -0.000   0.000  -0.000  -0.000
   11        0.000  -0.000   0.000   0.000
   12       -0.000   0.000  -0.000  -0.000
   13       -0.000  -0.000  -0.000  -0.000
   14        0.000   0.000  -0.000   0.000
   15       -0.000  -0.000  -0.000  -0.000
   16        0.000   0.000  -0.000   0.000
--------------------------------------------------
tot          0.000  -0.000   0.000   0.000
 


 magnetization (y)
 
# of ion       s       p       d       tot
------------------------------------------
    1       -0.000   0.000   0.000   0.000
    2        0.000   0.000   0.000   0.000
    3        0.000  -0.000   0.000  -0.000
    4       -0.000   0.000   0.000   0.000
    5        0.000   0.000   0.000   0.000
    6       -0.000   0.000   0.000   0.000
    7        0.000  -0.000   0.000  -0.000
    8       -0.000   0.000   0.000   0.000
    9       -0.000   0.000   0.000   0.000
   10       -0.000  -0.000  -0.000  -0.000
   11       -0.000   0.000   0.000   0.000
   12       -0.000  -0.000  -0.000  -0.000
   13        0.000  -0.000  -0.000  -0.000
   14        0.000   0.000  -0.000  -0.000
   15        0.000  -0.000  -0.000  -0.000
   16        0.000   0.000  -0.000  -0.000
--------------------------------------------------
tot          0.000  -0.000  -0.000  -0.000
 


 magnetization (z)
 
# of ion       s       p       d       tot
------------------------------------------
    1        0.000  -0.003   0.000  -0.003
    2        0.000  -0.003   0.000  -0.003
    3       -0.000   0.004   0.000   0.003
    4       -0.000   0.002   0.000   0.002
    5        0.000  -0.003   0.000  -0.003
    6        0.000  -0.003   0.000  -0.003
    7       -0.000   0.004   0.000   0.003
    8       -0.000   0.002   0.000   0.002
    9        0.000  -0.000   0.002   0.002
   10       -0.000   0.000  -0.002  -0.002
   11        0.000  -0.000   0.002   0.002
   12       -0.000   0.000  -0.002  -0.002
   13        0.021   0.052   3.698   3.771
   14       -0.021  -0.052  -3.698  -3.771
   15        0.021   0.052   3.698   3.771
   16       -0.021  -0.052  -3.698  -3.771
--------------------------------------------------
tot          0.000  -0.000   0.001   0.000
 
    FORLOC:  cpu time    0.0018: real time    0.0018
    FORNL :  cpu time    1.1612: real time    1.1667
    STRESS:  cpu time    1.1108: real time    1.1160
    FORCOR:  cpu time    0.0786: real time    0.0791
    OFIELD:  cpu time    0.0005: real time    0.0005

  FORCE on cell =-STRESS in cart. coord.  units (eV):
  Direction    XX          YY          ZZ          XY          YZ          ZX
  --------------------------------------------------------------------------------------
  Alpha Z   575.49758   575.49758   575.49758
  Ewald   -5015.42484 -5466.07570 -5028.81941    -0.00000     0.00000    -0.00000
  Hartree  3671.25765  3445.55419  3684.33504    -0.00000    -0.00000    -0.00000
  E(xc)   -1049.77050 -1050.06042 -1049.77899     0.00000    -0.00000     0.00000
  Local   -1520.29200  -846.42656 -1518.09253     0.00000    -0.00000    -0.00000
  n-local   119.65400   114.79598   119.78421    -0.28574    -0.02504    -0.00934
  augment  1181.93724  1179.02638  1180.25160     0.00000     0.00000     0.00000
  Kinetic  2031.16487  2047.68827  2031.41604    -0.90487     0.01009    -0.00429
  Fock        0.00000     0.00000     0.00000     0.00000     0.00000     0.00000
  -------------------------------------------------------------------------------------
  Total      -5.97600    -0.00028    -5.40646     0.00000     0.00000     0.00000
  in kB     -32.51852    -0.00151   -29.41936     0.00000     0.00000     0.00000
  external pressure =      -20.65 kB  Pullay stress =        0.00 kB


 VOLUME and BASIS-vectors are now :
 -----------------------------------------------------------------------------
  energy-cutoff  :      700.00
  volume of cell :      294.44
      direct lattice vectors                 reciprocal lattice vectors
     5.469137082  0.000000000  0.000000000     0.182844201  0.000000000  0.000000000
     0.000000000  4.973438499  0.000000000     0.000000000  0.201068134  0.000000000
     0.000000000  0.000000000 10.824668134     0.000000000  0.000000000  0.092381585

  length of vectors
     5.469137082  4.973438499 10.824668134     0.182844201  0.201068134  0.092381585


 FORCES acting on ions:
    Electron-Ion                     Ewald-Force                    Non-Local-Force
 -----------------------------------------------------------------------------------------------
   0.438E+02 -.381E-11 -.129E-10   -.446E+02 0.123E-10 -.682E-11   0.766E+00 0.542E-19 0.217E-18
   -.438E+02 0.381E-11 -.118E-10   0.446E+02 -.125E-10 -.676E-11   -.766E+00 0.136E-19 -.130E-17
   0.412E-11 -.369E+02 -.135E-10   0.768E-12 0.375E+02 0.114E-12   -.434E-18 -.603E+00 0.000E+00
   -.420E-11 0.369E+02 -.116E-10   -.109E-11 -.375E+02 0.156E-12   -.434E-18 0.603E+00 0.434E-18
   -.438E+02 0.357E-11 -.125E-10   0.446E+02 0.124E-10 0.674E-11   -.766E+00 -.136E-19 0.434E-18
   0.438E+02 -.266E-11 -.134E-10   -.446E+02 -.125E-10 0.665E-11   0.766E+00 0.542E-19 0.651E-18
   0.391E-11 -.369E+02 -.127E-10   -.111E-11 0.375E+02 -.568E-13   -.434E-18 -.603E+00 0.000E+00
   -.416E-11 0.369E+02 -.130E-10   0.597E-12 -.375E+02 -.568E-13   -.434E-18 0.603E+00 0.434E-18
   0.333E-12 -.217E-12 0.375E+01   0.748E-05 -.208E-04 -.380E+01   0.108E-18 0.000E+00 0.491E-01
   0.191E-11 0.206E-12 -.375E+01   -.748E-05 -.208E-04 0.380E+01   0.217E-18 0.000E+00 -.491E-01
   0.204E-11 0.442E-11 0.375E+01   -.748E-05 0.208E-04 -.380E+01   0.108E-18 0.000E+00 0.491E-01
   0.374E-12 0.135E-11 -.375E+01   0.748E-05 0.208E-04 0.380E+01   0.217E-18 0.000E+00 -.491E-01
   0.416E-13 -.189E-12 -.959E+01   -.547E-05 0.173E-04 0.960E+01   0.867E-18 -.108E-18 -.103E-01
   0.686E-12 0.309E-12 0.959E+01   0.547E-05 0.173E-04 -.960E+01   0.173E-17 0.108E-18 0.103E-01
   0.707E-12 0.129E-11 -.959E+01   0.547E-05 -.173E-04 0.960E+01   0.867E-18 -.108E-18 -.103E-01
   0.624E-13 0.109E-11 0.959E+01   -.547E-05 -.173E-04 -.960E+01   0.173E-17 0.108E-18 0.103E-01
 -----------------------------------------------------------------------------------------------
   0.117E-10 0.850E-11 -.673E-08   0.652E-13 0.130E-13 0.409E-13   0.499E-17 -.111E-15 -.347E-17
 
 
 POSITION                                       TOTAL-FORCE (eV/Angst)
 -----------------------------------------------------------------------------------
      1.37872      1.24336      1.35308         0.000005      0.000000      0.000000
      4.09042      3.73008      1.35308        -0.000005      0.000000      0.000000
      1.36728      3.72009      9.47158        -0.000000      0.000001     -0.000000
      4.10185      1.25335      9.47158         0.000000     -0.000001     -0.000000
      1.35585      1.24336      6.76542        -0.000005     -0.000000      0.000000
      4.11329      3.73008      6.76542         0.000005      0.000000     -0.000000
      4.10185      1.23337      4.05925        -0.000000      0.000001      0.000000
      1.36728      3.74007      4.05925         0.000000     -0.000001     -0.000000
      0.00000      0.00000      5.40732        -0.000000      0.000000      0.000007
      2.73457      0.00000      2.71118        -0.000000      0.000000     -0.000007
      2.73457      2.48672     10.81965        -0.000000      0.000000      0.000007
      0.00000      2.48672      8.12352        -0.000000      0.000000     -0.000007
      0.00000      0.00000     10.82279        -0.000000      0.000000      0.000010
      2.73457      0.00000      8.12037        -0.000000      0.000000     -0.000010
      2.73457      2.48672      5.41046        -0.000000      0.000000      0.000010
      0.00000      2.48672      2.70804        -0.000000      0.000000     -0.000010
 -----------------------------------------------------------------------------------
    total drift:                                0.000000      0.000000     -0.000000


--------------------------------------------------------------------------------------------------------



  FREE ENERGIE OF THE ION-ELECTRON SYSTEM (eV)
  ---------------------------------------------------
  free  energy   TOTEN  =       -81.84420120 eV

  energy  without entropy=      -81.84420120  energy(sigma->0) =      -81.84420120
 


--------------------------------------------------------------------------------------------------------


    POTLOK:  cpu time    0.6731: real time    0.6754


--------------------------------------------------------------------------------------------------------


 writing wavefunctions
     LOOP+:  cpu time  539.9172: real time  625.1404
    4ORBIT:  cpu time    0.0000: real time    0.0000
 


 total charge     
 
# of ion       s       p       d       tot
------------------------------------------
    1        1.314   2.397   0.000   3.711
    2        1.314   2.397   0.000   3.711
    3        1.314   2.401   0.000   3.714
    4        1.314   2.401   0.000   3.714
    5        1.314   2.397   0.000   3.711
    6        1.314   2.397   0.000   3.711
    7        1.314   2.401   0.000   3.714
    8        1.314   2.401   0.000   3.714
    9        0.252   6.190   8.920  15.362
   10        0.252   6.190   8.920  15.362
   11        0.252   6.190   8.920  15.362
   12        0.252   6.190   8.920  15.362
   13        0.343   6.335   5.801  12.480
   14        0.343   6.335   5.802  12.480
   15        0.343   6.335   5.801  12.480
   16        0.343   6.335   5.802  12.480
--------------------------------------------------
tot         12.891  69.295  58.885 141.071
 


 magnetization (x)
 
# of ion       s       p       d       tot
------------------------------------------
    1       -0.000   0.000   0.000   0.000
    2        0.000  -0.000   0.000  -0.000
    3        0.000  -0.000   0.000  -0.000
    4        0.000  -0.000   0.000  -0.000
    5        0.000  -0.000   0.000  -0.000
    6       -0.000   0.000   0.000   0.000
    7        0.000  -0.000   0.000  -0.000
    8        0.000  -0.000   0.000  -0.000
    9        0.000  -0.000   0.000   0.000
   10       -0.000   0.000  -0.000  -0.000
   11        0.000  -0.000   0.000   0.000
   12       -0.000   0.000  -0.000  -0.000
   13       -0.000  -0.000  -0.000  -0.000
   14        0.000   0.000  -0.000   0.000
   15       -0.000  -0.000  -0.000  -0.000
   16        0.000   0.000  -0.000   0.000
--------------------------------------------------
tot          0.000  -0.000   0.000   0.000
 


 magnetization (y)
 
# of ion       s       p       d       tot
------------------------------------------
    1       -0.000   0.000   0.000   0.000
    2        0.000   0.000   0.000   0.000
    3        0.000  -0.000   0.000  -0.000
    4       -0.000   0.000   0.000   0.000
    5        0.000   0.000   0.000   0.000
    6       -0.000   0.000   0.000   0.000
    7        0.000  -0.000   0.000  -0.000
    8       -0.000   0.000   0.000   0.000
    9       -0.000   0.000   0.000   0.000
   10       -0.000  -0.000  -0.000  -0.000
   11       -0.000   0.000   0.000   0.000
   12       -0.000  -0.000  -0.000  -0.000
   13        0.000  -0.000  -0.000  -0.000
   14        0.000   0.000  -0.000  -0.000
   15        0.000  -0.000  -0.000  -0.000
   16        0.000   0.000  -0.000  -0.000
--------------------------------------------------
tot          0.000  -0.000  -0.000  -0.000
 


 magnetization (z)
 
# of ion       s       p       d       tot
------------------------------------------
    1        0.000  -0.003   0.000  -0.003
    2        0.000  -0.003   0.000  -0.003
    3       -0.000   0.004   0.000   0.003
    4       -0.000   0.002   0.000   0.002
    5        0.000  -0.003   0.000  -0.003
    6        0.000  -0.003   0.000  -0.003
    7       -0.000   0.004   0.000   0.003
    8       -0.000   0.002   0.000   0.002
    9        0.000  -0.000   0.002   0.002
   10       -0.000   0.000  -0.002  -0.002
   11        0.000  -0.000   0.002   0.002
   12       -0.000   0.000  -0.002  -0.002
   13        0.021   0.052   3.698   3.771
   14       -0.021  -0.052  -3.698  -3.771
   15        0.021   0.052   3.698   3.771
   16       -0.021  -0.052  -3.698  -3.771
--------------------------------------------------
tot          0.000  -0.000   0.001   0.000
 
 BZINTS: Fermi energy:  4.667406;172.000000 electrons
         Band energy:***********;  BLOECHL correction:  0.000000
 BZINTS: Fermi energy:  4.667406;172.000000 electrons
         Band energy:***********;  BLOECHL correction:  0.000000
 BZINTS: Fermi energy:  4.667406;172.000000 electrons
         Band energy:***********;  BLOECHL correction:  0.000000
 BZINTS: Fermi energy:  4.667406;172.000000 electrons
         Band energy:***********;  BLOECHL correction:  0.000000

 total amount of memory used by VASP MPI-rank0    81827. kBytes
=======================================================================

   base      :      30000. kBytes
   nonl-proj :       6323. kBytes
   fftplans  :       1447. kBytes
   grid      :       5898. kBytes
   one-center:         62. kBytes
   wavefun   :      38097. kBytes
 
  
  
 General timing and accounting informations for this job:
 ========================================================
  
                  Total CPU time used (sec):      571.947
                            User time (sec):      556.350
                          System time (sec):       15.597
                         Elapsed time (sec):      658.373
  
                   Maximum memory used (kb):      528436.
                   Average memory used (kb):           0.
  
                          Minor page faults:       462582
                          Major page faults:         3024
                 Voluntary context switches:         8569
