 vasp.5.4.4.18Apr17-6-g9f103f2a35 (build Oct 30 2023 17:30:16) complex          
  
 executed on             LinuxIFC date 2024.06.30  05:41:50
 running on  256 total cores
 distrk:  each k-point on  256 cores,    1 groups
 distr:  one band on NCORES_PER_BAND=   1 cores,  256 groups


--------------------------------------------------------------------------------------------------------


 INCAR:
 POTCAR:    PAW_PBE S 06Sep2000                   
 POTCAR:     PAW_PBE Cu_pv 06Sep2000              
 POTCAR:     PAW_PBE Fe_pv 02Aug2007              

 ----------------------------------------------------------------------------- 
|                                                                             |
|           W    W    AA    RRRRR   N    N  II  N    N   GGGG   !!!           |
|           W    W   A  A   R    R  NN   N  II  NN   N  G    G  !!!           |
|           W    W  A    A  R    R  N N  N  II  N N  N  G       !!!           |
|           W WW W  AAAAAA  RRRRR   N  N N  II  N  N N  G  GGG   !            |
|           WW  WW  A    A  R   R   N   NN  II  N   NN  G    G                |
|           W    W  A    A  R    R  N    N  II  N    N   GGGG   !!!           |
|                                                                             |
|      For optimal performance we recommend to set                            |
|        NCORE= 4 - approx SQRT( number of cores)                             |
|      NCORE specifies how many cores store one orbital (NPAR=cpu/NCORE).     |
|      This setting can  greatly improve the performance of VASP for DFT.     |
|      The default,   NCORE=1            might be grossly inefficient         |
|      on modern multi-core architectures or massively parallel machines.     |
|      Do your own testing !!!!                                               |
|      Unfortunately you need to use the default for GW and RPA calculations. |
|      (for HF NCORE is supported but not extensively tested yet)             |
|                                                                             |
 ----------------------------------------------------------------------------- 

 POTCAR:    PAW_PBE S 06Sep2000                   
   SHA256 =  0fc7481fb0695f01bdc6462160264c5c84044ae9ec85a907d398b887a2bc3132 S/
   COPYR  = (c) Copyright 06Sep2000 Georg Kresse                                
   COPYR  = This file is part of the software VASP. Any use, copying, and all ot
   COPYR  = If you do not have a valid VASP license, you may not use, copy or di
   VRHFIN =S : s2p4                                                             
   LEXCH  = PE                                                                  
   EATOM  =   276.8230 eV,   20.3459 Ry                                         
                                                                                
   TITEL  = PAW_PBE S 06Sep2000                                                 
   LULTRA =        F    use ultrasoft PP ?                                      
   IUNSCR =        1    unscreen: 0-lin 1-nonlin 2-no                           
   RPACOR =    1.500    partial core radius                                     
   POMASS =   32.066; ZVAL   =    6.000    mass and valenz                      
   RCORE  =    1.900    outmost cutoff radius                                   
   RWIGS  =    2.200; RWIGS  =    1.164    wigner-seitz radius (au A)           
   ENMAX  =  258.689; ENMIN  =  194.016 eV                                      
   ICORE  =        2    local potential                                         
   LCOR   =        T    correct aug charges                                     
   LPAW   =        T    paw PP                                                  
   EAUG   =  335.092                                                            
   DEXC   =    0.000                                                            
   RMAX   =    1.942    core radius for proj-oper                               
   RAUG   =    1.300    factor for augmentation sphere                          
   RDEP   =    1.954    radius for radial grids                                 
   RDEPT  =    1.744    core radius for aug-charge                              
                                                                                
   Atomic configuration                                                         
    6 entries                                                                   
     n  l   j            E        occ.                                          
     1  0  0.50     -2405.8406   2.0000                                         
     2  0  0.50      -211.7007   2.0000                                         
     2  1  1.50      -156.4958   6.0000                                         
     3  0  0.50       -17.2562   2.0000                                         
     3  1  0.50        -7.0085   4.0000                                         
     3  2  1.50        -6.8029   0.0000                                         
   Description                                                                  
     l       E           TYP  RCUT    TYP  RCUT                                 
     0    -17.2561641     23  1.900                                             
     0    -15.8743224     23  1.900                                             
     1     -7.0085400     23  1.900                                             
     1     -2.7779785     23  1.900                                             
     2     -6.8029130     23  1.900                                             
  local pseudopotential read in
  partial core-charges read in
  partial kinetic energy density read in
  atomic valenz-charges read in
  non local Contribution for L=           0  read in
    real space projection operators read in
  non local Contribution for L=           0  read in
    real space projection operators read in
  non local Contribution for L=           1  read in
    real space projection operators read in
  non local Contribution for L=           1  read in
    real space projection operators read in
    PAW grid and wavefunctions read in
 
   number of l-projection  operators is LMAX  =           4
   number of lm-projection operators is LMMAX =           8
 
 POTCAR:     PAW_PBE Cu_pv 06Sep2000              
   SHA256 =  cb7b504e2ea725fe1f25c85a9ac77d4012ce94cd394135b722c4e25ec297f1cb Cu
   COPYR  = (c) Copyright 06Sep2000 Georg Kresse                                
   COPYR  = This file is part of the software VASP. Any use, copying, and all ot
   COPYR  = If you do not have a valid VASP license, you may not use, copy or di
   VRHFIN =Cu: d10 p1                                                           
   LEXCH  = PE                                                                  
   EATOM  =  4120.1201 eV,  302.8203 Ry                                         
                                                                                
   TITEL  = PAW_PBE Cu_pv 06Sep2000                                             
   LULTRA =        F    use ultrasoft PP ?                                      
   IUNSCR =        1    unscreen: 0-lin 1-nonlin 2-no                           
   RPACOR =    1.500    partial core radius                                     
   POMASS =   63.546; ZVAL   =   17.000    mass and valenz                      
   RCORE  =    2.000    outmost cutoff radius                                   
   RWIGS  =    2.000; RWIGS  =    1.058    wigner-seitz radius (au A)           
   ENMAX  =  368.648; ENMIN  =  276.486 eV                                      
   RCLOC  =    1.304    cutoff for local pot                                    
   LCOR   =        T    correct aug charges                                     
   LPAW   =        T    paw PP                                                  
   EAUG   =  758.233                                                            
   DEXC   =    0.000                                                            
   RMAX   =    2.046    core radius for proj-oper                               
   RAUG   =    1.300    factor for augmentation sphere                          
   RDEP   =    2.025    radius for radial grids                                 
   RDEPT  =    1.558    core radius for aug-charge                              
                                                                                
   Atomic configuration                                                         
    8 entries                                                                   
     n  l   j            E        occ.                                          
     1  0  0.50     -8850.2467   2.0000                                         
     2  0  0.50     -1062.3498   2.0000                                         
     2  1  1.50      -916.8226   6.0000                                         
     3  0  0.50      -114.6929   2.0000                                         
     3  1  1.50       -72.1325   6.0000                                         
     3  2  2.50        -5.0394  10.0000                                         
     4  0  0.50        -4.6097   1.0000                                         
     4  3  2.50        -1.3606   0.0000                                         
   Description                                                                  
     l       E           TYP  RCUT    TYP  RCUT                                 
     1    -72.1324777     23  1.700                                             
     1     -1.3605826     23  1.700                                             
     2     -5.0393776     23  2.000                                             
     2     -6.3999602     23  2.000                                             
     0     -4.6097062     23  1.800                                             
     0     14.1620818     23  1.800                                             
  local pseudopotential read in
  partial core-charges read in
  partial kinetic energy density read in
  atomic valenz-charges read in
  non local Contribution for L=           1  read in
    real space projection operators read in
  non local Contribution for L=           1  read in
    real space projection operators read in
  non local Contribution for L=           2  read in
    real space projection operators read in
  non local Contribution for L=           2  read in
    real space projection operators read in
  non local Contribution for L=           0  read in
    real space projection operators read in
  non local Contribution for L=           0  read in
    real space projection operators read in
    PAW grid and wavefunctions read in
 
   number of l-projection  operators is LMAX  =           6
   number of lm-projection operators is LMMAX =          18
 
 POTCAR:     PAW_PBE Fe_pv 02Aug2007              
   SHA256 =  5d22e414b1f82158bf2c7ecb8b97b28fd0923e48cadc1c3bf74d524558f5dd32 Fe
   COPYR  = (c) Copyright 02Aug2007 Georg Kresse                                
   COPYR  = This file is part of the software VASP. Any use, copying, and all ot
   COPYR  = If you do not have a valid VASP license, you may not use, copy or di
   VRHFIN =Fe:  3pd7s1                                                          
   LEXCH  = PE                                                                  
   EATOM  =  2457.4239 eV,  180.6156 Ry                                         
                                                                                
   TITEL  = PAW_PBE Fe_pv 02Aug2007                                             
   LULTRA =        F    use ultrasoft PP ?                                      
   IUNSCR =        1    unscreen: 0-lin 1-nonlin 2-no                           
   RPACOR =    1.750    partial core radius                                     
   POMASS =   55.847; ZVAL   =   14.000    mass and valenz                      
   RCORE  =    2.200    outmost cutoff radius                                   
   RWIGS  =    2.200; RWIGS  =    1.164    wigner-seitz radius (au A)           
   ENMAX  =  293.238; ENMIN  =  219.928 eV                                      
   ICORE  =        3    local potential                                         
   LCOR   =        T    correct aug charges                                     
   LPAW   =        T    paw PP                                                  
   EAUG   =  578.342                                                            
   DEXC   =    0.000                                                            
   RMAX   =    2.249    core radius for proj-oper                               
   RAUG   =    1.300    factor for augmentation sphere                          
   RDEP   =    2.296    radius for radial grids                                 
   RDEPT  =    1.766    core radius for aug-charge                              
                                                                                
   Atomic configuration                                                         
    8 entries                                                                   
     n  l   j            E        occ.                                          
     1  0  0.50     -6993.8440   2.0000                                         
     2  0  0.50      -814.6047   2.0000                                         
     2  1  1.50      -693.3689   6.0000                                         
     3  0  0.50       -89.4732   2.0000                                         
     3  1  1.50       -55.6373   6.0000                                         
     3  2  2.50        -3.8151   7.0000                                         
     4  0  0.50        -4.2551   1.0000                                         
     4  3  2.50        -1.3606   0.0000                                         
   Description                                                                  
     l       E           TYP  RCUT    TYP  RCUT                                 
     1    -55.6372668     23  2.000                                             
     1     -5.4423304     23  2.000                                             
     2     -3.8151096     23  2.200                                             
     2     -5.1756922     23  2.200                                             
     0     -4.2550951     23  2.200                                             
     0     27.2116520     23  2.200                                             
     3     -1.3605826     23  2.200                                             
  local pseudopotential read in
  partial core-charges read in
  partial kinetic energy density read in
  atomic valenz-charges read in
  non local Contribution for L=           1  read in
    real space projection operators read in
  non local Contribution for L=           1  read in
    real space projection operators read in
  non local Contribution for L=           2  read in
    real space projection operators read in
  non local Contribution for L=           2  read in
    real space projection operators read in
  non local Contribution for L=           0  read in
    real space projection operators read in
  non local Contribution for L=           0  read in
    real space projection operators read in
    PAW grid and wavefunctions read in
 
   number of l-projection  operators is LMAX  =           6
   number of lm-projection operators is LMMAX =          18
 

 ----------------------------------------------------------------------------- 
|                                                                             |
|  ADVICE TO THIS USER RUNNING 'VASP/VAMP'   (HEAR YOUR MASTER'S VOICE ...):  |
|                                                                             |
|      You have a (more or less) 'large supercell' and for larger cells       |
|      it might be more efficient to use real space projection opertators     |
|      So try LREAL= Auto  in the INCAR   file.                               |
|      Mind:          For very  accurate calculation you might also keep the  |
|      reciprocal projection scheme          (i.e. LREAL=.FALSE.)             |
|                                                                             |
 ----------------------------------------------------------------------------- 


 ----------------------------------------------------------------------------- 
|                                                                             |
|  ADVICE TO THIS USER RUNNING 'VASP/VAMP'   (HEAR YOUR MASTER'S VOICE ...):  |
|                                                                             |
|      You enforced a specific xc-type in the INCAR file,                     |
|      a different type was found on the POTCAR file                          |
|          I HOPE YOU KNOW, WHAT YOU ARE  DOING                               |
|                                                                             |
 ----------------------------------------------------------------------------- 

  PAW_PBE S 06Sep2000                   :
 energy of atom  1       EATOM= -276.8230
 kinetic energy error for atom=    0.0007 (will be added to EATOM!!)
   PAW_PBE Cu_pv 06Sep2000              :
 energy of atom  2       EATOM=-4120.1201
 kinetic energy error for atom=    0.0094 (will be added to EATOM!!)
   PAW_PBE Fe_pv 02Aug2007              :
 energy of atom  3       EATOM=-2457.4239
 kinetic energy error for atom=    0.0025 (will be added to EATOM!!)
 
 
 POSCAR: Fe16 Cu16 S32                           
  positions in direct lattice
  No initial velocities read in
 exchange correlation table for  LEXCH =       14
   RHO(1)=    0.500       N(1)  =     2000
   RHO(2)=  100.500       N(2)  =     4000
 


--------------------------------------------------------------------------------------------------------


 ion  position               nearest neighbor table
   1  0.126  0.118  0.126-  41 2.25  61 2.26  37 2.28  49 2.30
   2  0.626  0.118  0.126-  42 2.25  62 2.26  38 2.28  50 2.30
   3  0.126  0.618  0.126-  43 2.25  63 2.26  39 2.28  51 2.30
   4  0.626  0.618  0.126-  44 2.25  64 2.26  40 2.28  52 2.30
   5  0.374  0.368  0.124-  39 2.25  52 2.26  41 2.28  62 2.30
   6  0.874  0.368  0.124-  40 2.25  51 2.26  42 2.28  61 2.30
   7  0.374  0.868  0.124-  37 2.25  50 2.26  43 2.28  64 2.30
   8  0.874  0.868  0.124-  38 2.25  49 2.26  44 2.28  63 2.30
   9  0.125  0.370  0.875-  51 2.27  55 2.27  41 2.27  45 2.27
  10  0.625  0.370  0.875-  52 2.27  56 2.27  42 2.27  46 2.27
  11  0.125  0.870  0.875-  49 2.27  53 2.27  43 2.27  47 2.27
  12  0.625  0.870  0.875-  50 2.27  54 2.27  44 2.27  48 2.27
  13  0.375  0.121  0.875-  41 2.26  46 2.26  50 2.29  53 2.29
  14  0.875  0.121  0.875-  42 2.26  45 2.26  49 2.29  54 2.29
  15  0.375  0.621  0.875-  43 2.26  48 2.26  52 2.29  55 2.29
  16  0.875  0.621  0.875-  44 2.26  47 2.26  51 2.29  56 2.29
  17  0.124  0.118  0.624-  45 2.25  57 2.26  33 2.28  53 2.30
  18  0.624  0.118  0.624-  46 2.25  58 2.26  34 2.28  54 2.30
  19  0.124  0.618  0.624-  47 2.25  59 2.26  35 2.28  55 2.30
  20  0.624  0.618  0.624-  48 2.25  60 2.26  36 2.28  56 2.30
  21  0.376  0.368  0.626-  36 2.25  55 2.26  46 2.28  57 2.30
  22  0.876  0.368  0.626-  35 2.25  56 2.26  45 2.28  58 2.30
  23  0.376  0.868  0.626-  34 2.25  53 2.26  48 2.28  59 2.30
  24  0.876  0.868  0.626-  33 2.25  54 2.26  47 2.28  60 2.30
  25  0.375  0.120  0.375-  57 2.27  62 2.27  34 2.27  37 2.27
  26  0.875  0.120  0.375-  58 2.27  61 2.27  33 2.27  38 2.27
  27  0.375  0.620  0.375-  59 2.27  64 2.27  36 2.27  39 2.27
  28  0.875  0.620  0.375-  60 2.27  63 2.27  35 2.27  40 2.27
  29  0.125  0.371  0.375-  35 2.26  39 2.26  57 2.29  61 2.29
  30  0.625  0.371  0.375-  36 2.26  40 2.26  58 2.29  62 2.29
  31  0.125  0.871  0.375-  33 2.26  37 2.26  59 2.29  63 2.29
  32  0.625  0.871  0.375-  34 2.26  38 2.26  60 2.29  64 2.29
  33  0.997  0.006  0.500-  24 2.25  31 2.26  26 2.27  17 2.28
  34  0.497  0.006  0.500-  23 2.25  32 2.26  25 2.27  18 2.28
  35  0.997  0.506  0.500-  22 2.25  29 2.26  28 2.27  19 2.28
  36  0.497  0.506  0.500-  21 2.25  30 2.26  27 2.27  20 2.28
  37  0.253  0.006  0.250-   7 2.25  31 2.26  25 2.27   1 2.28
  38  0.753  0.006  0.250-   8 2.25  32 2.26  26 2.27   2 2.28
  39  0.253  0.506  0.250-   5 2.25  29 2.26  27 2.27   3 2.28
  40  0.753  0.506  0.250-   6 2.25  30 2.26  28 2.27   4 2.28
  41  0.247  0.256  0.000-   1 2.25  13 2.26   9 2.27   5 2.28
  42  0.747  0.256  0.000-   2 2.25  14 2.26  10 2.27   6 2.28
  43  0.247  0.756  0.000-   3 2.25  15 2.26  11 2.27   7 2.28
  44  0.747  0.756  0.000-   4 2.25  16 2.26  12 2.27   8 2.28
  45  0.003  0.256  0.750-  17 2.25  14 2.26   9 2.27  22 2.28
  46  0.503  0.256  0.750-  18 2.25  13 2.26  10 2.27  21 2.28
  47  0.003  0.756  0.750-  19 2.25  16 2.26  11 2.27  24 2.28
  48  0.503  0.756  0.750-  20 2.25  15 2.26  12 2.27  23 2.28
  49  0.999  0.006  0.001-   8 2.26  11 2.27  14 2.29   1 2.30
  50  0.499  0.006  0.001-   7 2.26  12 2.27  13 2.29   2 2.30
  51  0.999  0.506  0.001-   6 2.26   9 2.27  16 2.29   3 2.30
  52  0.499  0.506  0.001-   5 2.26  10 2.27  15 2.29   4 2.30
  53  0.251  0.006  0.749-  23 2.26  11 2.27  13 2.29  17 2.30
  54  0.751  0.006  0.749-  24 2.26  12 2.27  14 2.29  18 2.30
  55  0.251  0.506  0.749-  21 2.26   9 2.27  15 2.29  19 2.30
  56  0.751  0.506  0.749-  22 2.26  10 2.27  16 2.29  20 2.30
  57  0.249  0.256  0.501-  17 2.26  25 2.27  29 2.29  21 2.30
  58  0.749  0.256  0.501-  18 2.26  26 2.27  30 2.29  22 2.30
  59  0.249  0.756  0.501-  19 2.26  27 2.27  31 2.29  23 2.30
  60  0.749  0.756  0.501-  20 2.26  28 2.27  32 2.29  24 2.30
  61  0.001  0.256  0.249-   1 2.26  26 2.27  29 2.29   6 2.30
  62  0.501  0.256  0.249-   2 2.26  25 2.27  30 2.29   5 2.30
  63  0.001  0.756  0.249-   3 2.26  28 2.27  31 2.29   8 2.30
  64  0.501  0.756  0.249-   4 2.26  27 2.27  32 2.29   7 2.30
 
  LATTYP: Found a simple monoclinic cell.
 ALAT       =    15.5858135580
 B/A-ratio  =     0.6755480528
 C/A-ratio  =     1.5610843232
 COS(beta)  =    -0.9579721487
  
  Lattice vectors:
  
 A1 = ( -11.0702880000,   0.0000000000, -10.9711580000)
 A2 = (   0.0000000000, -10.5289660000,   0.0000000000)
 A3 = (  11.6422980000,   0.0000000000,  21.3645320000)


Analysis of symmetry for initial positions (statically):
=====================================================================
 Subroutine PRICEL returns following result:
 
  LATTYP: Found a base centered monoclinic cell.
 ALAT       =    11.1344551807
 B/A-ratio  =     0.4728101119
 C/A-ratio  =     0.9348551418
 COS(beta)  =    -0.7983082624
  
  Lattice vectors:
  
 A1 = (  -2.3385645000,  -2.6322415000,   5.0522410000)
 A2 = (  -2.3385645000,   2.6322415000,   5.0522410000)
 A3 = (  -0.5720100000,   0.0000000000, -10.3933740000)
 
   8 primitive cells build up your supercell.
 

 Routine SETGRP: Setting up the symmetry group for a 
 simple monoclinic supercell.


 Subroutine GETGRP returns: Found  2 space group operations
 (whereof  1 operations were pure point group operations)
 out of a pool of  4 trial point group operations.


The static configuration has the point symmetry C_1 .
 The point group associated with its full space group is C_2 .


Analysis of symmetry for dynamics (positions and initial velocities):
=====================================================================
 Subroutine PRICEL returns following result:
 
  LATTYP: Found a base centered monoclinic cell.
 ALAT       =    11.1344551807
 B/A-ratio  =     0.4728101119
 C/A-ratio  =     0.9348551418
 COS(beta)  =    -0.7983082624
  
  Lattice vectors:
  
 A1 = (  -2.3385645000,  -2.6322415000,   5.0522410000)
 A2 = (  -2.3385645000,   2.6322415000,   5.0522410000)
 A3 = (  -0.5720100000,   0.0000000000, -10.3933740000)
 
   8 primitive cells build up your supercell.
 

 Routine SETGRP: Setting up the symmetry group for a 
 simple monoclinic supercell.


 Subroutine GETGRP returns: Found  2 space group operations
 (whereof  1 operations were pure point group operations)
 out of a pool of  4 trial point group operations.


The dynamic configuration has the point symmetry C_1 .
 The point group associated with its full space group is C_2 .


Analysis of structural, dynamic, and magnetic symmetry:
=====================================================================
 Subroutine PRICEL returns following result:
 
  LATTYP: Found a base centered monoclinic cell.
 ALAT       =    11.1344551807
 B/A-ratio  =     0.4728101119
 C/A-ratio  =     0.9348551418
 COS(beta)  =    -0.7983082624
  
  Lattice vectors:
  
 A1 = (  -2.3385645000,  -2.6322415000,   5.0522410000)
 A2 = (  -2.3385645000,   2.6322415000,   5.0522410000)
 A3 = (  -0.5720100000,   0.0000000000, -10.3933740000)
 
   8 primitive cells build up your supercell.
 

 Routine SETGRP: Setting up the symmetry group for a 
 simple monoclinic supercell.


 Subroutine GETGRP returns: Found  2 space group operations
 (whereof  1 operations were pure point group operations)
 out of a pool of  4 trial point group operations.


The magnetic configuration has the point symmetry C_1 .
 The point group associated with its full space group is C_2 .


 Subroutine INISYM returns: Found  2 space group operations
 (whereof  1 operations are pure point group operations),
 and found     8 'primitive' translations

 
 
 KPOINTS: Automatic mesh                          

Automatic generation of k-mesh.
Space group operators:
 irot       det(A)        alpha          n_x          n_y          n_z        tau_x        tau_y        tau_z
    1     1.000000     0.000000     1.000000     0.000000     0.000000     0.000000     0.000000     0.000000
    2     1.000000   179.999999     0.000000     1.000000     0.000000    -0.250000     0.000000    -0.250000
 
 Subroutine IBZKPT returns following result:
 ===========================================
 
 Found      8 irreducible k-points:
 
 Following reciprocal coordinates:
            Coordinates               Weight
  0.000000  0.000000  0.000000      1.000000
  0.500000  0.000000 -0.000000      1.000000
  0.000000  0.500000  0.000000      1.000000
  0.500000  0.500000 -0.000000      1.000000
  0.000000  0.000000  0.500000      1.000000
  0.500000  0.000000  0.500000      1.000000
  0.000000  0.500000  0.500000      1.000000
  0.500000  0.500000  0.500000      1.000000
 
 Following cartesian coordinates:
            Coordinates               Weight
  0.000000  0.000000  0.000000      1.000000
  0.047772  0.000000 -0.002629      1.000000
  0.000000  0.047488  0.000000      1.000000
  0.047772  0.047488 -0.002629      1.000000
 -0.002656  0.000000  0.048254      1.000000
  0.045116  0.000000  0.045625      1.000000
 -0.002656  0.047488  0.048254      1.000000
  0.045116  0.047488  0.045625      1.000000
 
 TETIRR: Found     24 inequivalent tetrahedra from       48
 
 Subroutine IBZKPT_HF returns following result:
 ==============================================
 
 Found      8 k-points in 1st BZ
 the following      8 k-points will be used (e.g. in the exchange kernel)
 Following reciprocal coordinates:   # in IRBZ
  0.000000  0.000000  0.000000    0.12500000   1 t-inv F
  0.500000  0.000000 -0.000000    0.12500000   2 t-inv F
  0.000000  0.500000  0.000000    0.12500000   3 t-inv F
  0.500000  0.500000 -0.000000    0.12500000   4 t-inv F
  0.000000  0.000000  0.500000    0.12500000   5 t-inv F
  0.500000  0.000000  0.500000    0.12500000   6 t-inv F
  0.000000  0.500000  0.500000    0.12500000   7 t-inv F
  0.500000  0.500000  0.500000    0.12500000   8 t-inv F


--------------------------------------------------------------------------------------------------------




 Dimension of arrays:
   k-points           NKPTS =      8   k-points in BZ     NKDIM =      8   number of bands    NBANDS=    512
   number of dos      NEDOS =    301   number of ions     NIONS =     64
   non local maximal  LDIM  =      6   non local SUM 2l+1 LMDIM =     18
   total plane-waves  NPLWV = 829440
   max r-space proj   IRMAX =      1   max aug-charges    IRDMAX=  23012
   dimension x,y,z NGX =    96 NGY =   96 NGZ =   90
   dimension x,y,z NGXF=   192 NGYF=  192 NGZF=  180
   support grid    NGXF=   192 NGYF=  192 NGZF=  180
   ions per type =              32  16  16
   NGX,Y,Z   is equivalent  to a cutoff of  15.18, 15.16, 14.37 a.u.
   NGXF,Y,Z  is equivalent  to a cutoff of  30.36, 30.32, 28.75 a.u.

 SYSTEM =  CuFeS2                                  
 POSCAR =  Fe16 Cu16 S32                           

 Startparameter for this run:
   NWRITE =      2    write-flag & timer
   PREC   = accura    normal or accurate (medium, high low for compatibility)
   ISTART =      0    job   : 0-new  1-cont  2-samecut
   ICHARG =      1    charge: 1-file 2-atom 10-const
   ISPIN  =      2    spin polarized calculation?
   LNONCOLLINEAR =      F non collinear calculations
   LSORBIT =      F    spin-orbit coupling
   INIWAV =      1    electr: 0-lowe 1-rand  2-diag
   LASPH  =      F    aspherical Exc in radial PAW
   METAGGA=      F    non-selfconsistent MetaGGA calc.

 Electronic Relaxation 1
   ENCUT  =  700.0 eV  51.45 Ry    7.17 a.u.  22.68 22.71 22.46*2*pi/ulx,y,z
   ENINI  =  700.0     initial cutoff
   ENAUG  =  758.2 eV  augmentation charge cutoff
   NELM   =    500;   NELMIN=  2; NELMDL=  0     # of ELM steps 
   EDIFF  = 0.1E-07   stopping-criterion for ELM
   LREAL  =      F    real-space projection
   NLSPLINE    = F    spline interpolate recip. space projectors
   LCOMPAT=      F    compatible to vasp.4.4
   GGA_COMPAT  = T    GGA compatible to vasp.4.4-vasp.4.6
   LMAXPAW     = -100 max onsite density
   LMAXMIX     =    4 max onsite mixed and CHGCAR
   VOSKOWN=      0    Vosko Wilk Nusair interpolation
   ROPT   =    0.00000   0.00000   0.00000
 Ionic relaxation
   EDIFFG = -.1E-04   stopping-criterion for IOM
   NSW    =      0    number of steps for IOM
   NBLOCK =      1;   KBLOCK =      1    inner block; outer block 
   IBRION =     -1    ionic relax: 0-MD 1-quasi-New 2-CG
   NFREE  =      0    steps in history (QN), initial steepest desc. (CG)
   ISIF   =      2    stress and relaxation
   IWAVPR =     10    prediction:  0-non 1-charg 2-wave 3-comb
   ISYM   =      2    0-nonsym 1-usesym 2-fastsym
   LCORR  =      T    Harris-Foulkes like correction to forces

   POTIM  = 0.5000    time-step for ionic-motion
   TEIN   =    0.0    initial temperature
   TEBEG  =    0.0;   TEEND  =   0.0 temperature during run
   SMASS  =  -3.00    Nose mass-parameter (am)
   estimated Nose-frequenzy (Omega)   =  0.10E-29 period in steps =****** mass=  -0.253E-26a.u.
   SCALEE = 1.0000    scale energy and forces
   NPACO  =    256;   APACO  = 16.0  distance and # of slots for P.C.
   PSTRESS=    0.0 pullay stress

  Mass of Ions in am
   POMASS =  32.07 63.55 55.85
  Ionic Valenz
   ZVAL   =   6.00 17.00 14.00
  Atomic Wigner-Seitz radii
   RWIGS  =  -1.00 -1.00 -1.00
  virtual crystal weights 
   VCA    =   1.00  1.00  1.00
   NELECT =     688.0000    total number of electrons
   NUPDOWN=      -1.0000    fix difference up-down

 DOS related values:
   EMIN   =  10.00;   EMAX   =-10.00  energy-range for DOS
   EFERMI =   0.00
   ISMEAR =    -5;   SIGMA  =   0.03  broadening in eV -4-tet -1-fermi 0-gaus

 Electronic relaxation 2 (details)
   IALGO  =     38    algorithm
   LDIAG  =      T    sub-space diagonalisation (order eigenvalues)
   LSUBROT=      F    optimize rotation matrix (better conditioning)
   TURBO    =      0    0=normal 1=particle mesh
   IRESTART =      0    0=no restart 2=restart with 2 vectors
   NREBOOT  =      0    no. of reboots
   NMIN     =      0    reboot dimension
   EREF     =   0.00    reference energy to select bands
   IMIX   =      4    mixing-type and parameters
     AMIX     =   0.40;   BMIX     =  1.00
     AMIX_MAG =   1.60;   BMIX_MAG =  1.00
     AMIN     =   0.10
     WC   =   100.;   INIMIX=   1;  MIXPRE=   1;  MAXMIX= -45

 Intra band minimization:
   WEIMIN = 0.0000     energy-eigenvalue tresh-hold
   EBREAK =  0.49E-11  absolut break condition
   DEPER  =   0.30     relativ break condition  

   TIME   =   0.40     timestep for ELM

  volume/ion in A,a.u.               =      17.90       120.77
  Fermi-wavevector in a.u.,A,eV,Ry     =   1.381306  2.610291 25.960015  1.908007
  Thomas-Fermi vector in A             =   2.506103
 
 Write flags
   LWAVE        =      T    write WAVECAR
   LDOWNSAMPLE  =      F    k-point downsampling of WAVECAR
   LCHARG       =      T    write CHGCAR
   LVTOT        =      F    write LOCPOT, total local potential
   LVHAR        =      F    write LOCPOT, Hartree potential only
   LELF         =      F    write electronic localiz. function (ELF)
   LORBIT       =     11    0 simple, 1 ext, 2 COOP (PROOUT), +10 PAW based schemes


 Dipole corrections
   LMONO  =      F    monopole corrections only (constant potential shift)
   LDIPOL =      F    correct potential (dipole corrections)
   IDIPOL =      0    1-x, 2-y, 3-z, 4-all directions 
   EPSILON=  1.0000000 bulk dielectric constant

 LDA+U is selected, type is set to LDAUTYPE =  2
   angular momentum for each species LDAUL =     2    2    2
   U (eV)           for each species LDAUU =   0.0  0.1  4.7
   J (eV)           for each species LDAUJ =   0.0  0.0  0.0
 Exchange correlation treatment:
   GGA     =    PS    GGA type
   LEXCH   =    14    internal setting for exchange type
   VOSKOWN=      0    Vosko Wilk Nusair interpolation
   LHFCALC =     F    Hartree Fock is set to
   LHFONE  =     F    Hartree Fock one center treatment
   AEXX    =    0.0000 exact exchange contribution

 Linear response parameters
   LEPSILON=     F    determine dielectric tensor
   LRPA    =     F    only Hartree local field effects (RPA)
   LNABLA  =     F    use nabla operator in PAW spheres
   LVEL    =     F    velocity operator in full k-point grid
   LINTERFAST=   F  fast interpolation
   KINTER  =     0    interpolate to denser k-point grid
   CSHIFT  =0.1000    complex shift for real part using Kramers Kronig
   OMEGAMAX=  -1.0    maximum frequency
   DEG_THRESHOLD= 0.2000000E-02 threshold for treating states as degnerate
   RTIME   =   -0.100 relaxation time in fs
  (WPLASMAI=    0.000 imaginary part of plasma frequency in eV, 0.658/RTIME)
   DFIELD  = 0.0000000 0.0000000 0.0000000 field for delta impulse in time
 
 Orbital magnetization related:
   ORBITALMAG=     F  switch on orbital magnetization
   LCHIMAG   =     F  perturbation theory with respect to B field
   DQ        =  0.001000  dq finite difference perturbation B field
   LLRAUG    =     F  two centre corrections for induced B field

 PEAD related settings:
   LPEAD      =     T    switch on PEAD
   IPEAD      =     4    finite difference order for dpsi/dk
   LCALCPOL   =     T    calculate macroscopic polarization
   LCALCEPS   =     F    calculate dielectric tensor
   EFIELD_PEAD=    0.0000    0.0000    0.0000
   SKIP_EDOTP =     F
   LRPA       =     F
   SKIP_SCF   =     F


--------------------------------------------------------------------------------------------------------


 Static calculation
 charge density and potential will be updated during run
 spin polarized calculation
 Variant of blocked Davidson
 Davidson routine will perform the subspace rotation
 perform sub-space diagonalisation
    after iterative eigenvector-optimisation
 modified Broyden-mixing scheme, WC =      100.0
 initial mixing is a Kerker type mixing with AMIX =  0.4000 and BMIX =      1.0000
 Hartree-type preconditioning will be used
 using additional bands          168
 reciprocal scheme for non local part
 use partial core corrections
 calculate Harris-corrections to forces 
   (improved forces if not selfconsistent)
 use gradient corrections 
 use of overlap-Matrix (Vanderbilt PP)
 Fermi weights with tetrahedron method with Bloechl corrections


--------------------------------------------------------------------------------------------------------


  energy-cutoff  :      700.00
  volume of cell :     1145.36
      direct lattice vectors                 reciprocal lattice vectors
    10.498278000  0.000000000  0.577784000     0.095543114  0.000000000 -0.005258313
     0.000000000 10.528966000  0.000000000     0.000000000  0.094976088  0.000000000
     0.572010000  0.000000000 10.393374000    -0.005311392  0.000000000  0.096507464

  length of vectors
    10.514165460 10.528966000 10.409102677     0.095687703  0.094976088  0.096653513


 
 k-points in units of 2pi/SCALE and weight: Automatic mesh                          
   0.00000000  0.00000000  0.00000000       0.125
   0.04777156  0.00000000 -0.00262916       0.125
   0.00000000  0.04748804  0.00000000       0.125
   0.04777156  0.04748804 -0.00262916       0.125
  -0.00265570  0.00000000  0.04825373       0.125
   0.04511586  0.00000000  0.04562458       0.125
  -0.00265570  0.04748804  0.04825373       0.125
   0.04511586  0.04748804  0.04562458       0.125
 
 k-points in reciprocal lattice and weights: Automatic mesh                          
   0.00000000  0.00000000  0.00000000       0.125
   0.50000000  0.00000000 -0.00000000       0.125
   0.00000000  0.50000000  0.00000000       0.125
   0.50000000  0.50000000 -0.00000000       0.125
   0.00000000  0.00000000  0.50000000       0.125
   0.50000000  0.00000000  0.50000000       0.125
   0.00000000  0.50000000  0.50000000       0.125
   0.50000000  0.50000000  0.50000000       0.125
 
 position of ions in fractional coordinates (direct lattice) 
   0.12646500  0.11794600  0.12604500
   0.62646500  0.11794600  0.12604500
   0.12646500  0.61794600  0.12604500
   0.62646500  0.61794600  0.12604500
   0.37353500  0.36794600  0.12395500
   0.87353500  0.36794600  0.12395500
   0.37353500  0.86794600  0.12395500
   0.87353500  0.86794600  0.12395500
   0.12500000  0.36979600  0.87500000
   0.62500000  0.36979600  0.87500000
   0.12500000  0.86979600  0.87500000
   0.62500000  0.86979600  0.87500000
   0.37500000  0.12127800  0.87500000
   0.87500000  0.12127800  0.87500000
   0.37500000  0.62127800  0.87500000
   0.87500000  0.62127800  0.87500000
   0.12353500  0.11794600  0.62395500
   0.62353500  0.11794600  0.62395500
   0.12353500  0.61794600  0.62395500
   0.62353500  0.61794600  0.62395500
   0.37646500  0.36794600  0.62604500
   0.87646500  0.36794600  0.62604500
   0.37646500  0.86794600  0.62604500
   0.87646500  0.86794600  0.62604500
   0.37500000  0.11979600  0.37500000
   0.87500000  0.11979600  0.37500000
   0.37500000  0.61979600  0.37500000
   0.87500000  0.61979600  0.37500000
   0.12500000  0.37127800  0.37500000
   0.62500000  0.37127800  0.37500000
   0.12500000  0.87127800  0.37500000
   0.62500000  0.87127800  0.37500000
   0.99744400  0.00583900  0.50001100
   0.49744400  0.00583900  0.50001100
   0.99744400  0.50583900  0.50001100
   0.49744400  0.50583900  0.50001100
   0.25255600  0.00583900  0.24998900
   0.75255600  0.00583900  0.24998900
   0.25255600  0.50583900  0.24998900
   0.75255600  0.50583900  0.24998900
   0.24744400  0.25583900  0.00001100
   0.74744400  0.25583900  0.00001100
   0.24744400  0.75583900  0.00001100
   0.74744400  0.75583900  0.00001100
   0.00255600  0.25583900  0.74998900
   0.50255600  0.25583900  0.74998900
   0.00255600  0.75583900  0.74998900
   0.50255600  0.75583900  0.74998900
   0.99851500  0.00567800  0.00084200
   0.49851500  0.00567800  0.00084200
   0.99851500  0.50567800  0.00084200
   0.49851500  0.50567800  0.00084200
   0.25148500  0.00567800  0.74915800
   0.75148500  0.00567800  0.74915800
   0.25148500  0.50567800  0.74915800
   0.75148500  0.50567800  0.74915800
   0.24851500  0.25567800  0.50084200
   0.74851500  0.25567800  0.50084200
   0.24851500  0.75567800  0.50084200
   0.74851500  0.75567800  0.50084200
   0.00148500  0.25567800  0.24915800
   0.50148500  0.25567800  0.24915800
   0.00148500  0.75567800  0.24915800
   0.50148500  0.75567800  0.24915800
 
 position of ions in cartesian coordinates  (Angst):
   1.39976373  1.24184942  1.38310228
   6.64890273  1.24184942  1.67199428
   1.39976373  6.50633242  1.38310228
   6.64890273  6.50633242  1.67199428
   3.99237777  3.87409092  1.50413322
   9.24151677  3.87409092  1.79302522
   3.99237777  9.13857392  1.50413322
   9.24151677  9.13857392  1.79302522
   1.81279350  3.89356951  9.16642525
   7.06193250  3.89356951  9.45531725
   1.81279350  9.15805251  9.16642525
   7.06193250  9.15805251  9.45531725
   4.43736300  1.27693194  9.31087125
   9.68650200  1.27693194  9.59976325
   4.43736300  6.54141494  9.31087125
   9.68650200  6.54141494  9.59976325
   1.65381327  1.24184942  6.55637422
   6.90295227  1.24184942  6.84526622
   1.65381327  6.50633242  6.55637422
   6.90295227  6.50633242  6.84526622
   4.31033823  3.87409092  6.72423528
   9.55947723  3.87409092  7.01312728
   4.31033823  9.13857392  6.72423528
   9.55947723  9.13857392  7.01312728
   4.15135800  1.26132801  4.11418425
   9.40049700  1.26132801  4.40307625
   4.15135800  6.52581101  4.11418425
   9.40049700  6.52581101  4.40307625
   1.52678850  3.90917344  3.96973825
   6.77592750  3.90917344  4.25863025
   1.52678850  9.17365644  3.96973825
   6.77592750  9.17365644  4.25863025
  10.75745569  0.06147863  5.77310851
   5.50831669  0.06147863  5.48421651
  10.75745569  5.32596163  5.77310851
   5.50831669  5.32596163  5.48421651
   2.79439931  0.06147863  2.74415199
   8.04353831  0.06147863  3.03304399
   2.79439931  5.32596163  2.74415199
   8.04353831  5.32596163  3.03304399
   2.59774219  2.69372013  0.14308351
   7.84688119  2.69372013  0.43197551
   2.59774219  7.95820313  0.14308351
   7.84688119  7.95820313  0.43197551
   0.45583481  2.69372013  7.79639299
   5.70497381  2.69372013  8.08528499
   0.45583481  7.95820313  7.79639299
   5.70497381  7.95820313  8.08528499
  10.48316969  0.05978347  0.58567721
   5.23403069  0.05978347  0.29678521
  10.48316969  5.32426647  0.58567721
   5.23403069  5.32426647  0.29678521
   3.06868531  0.05978347  7.93158329
   8.31782431  0.05978347  8.22047529
   3.06868531  5.32426647  7.93158329
   8.31782431  5.32426647  8.22047529
   2.89546619  2.69202497  5.34902621
   8.14460519  2.69202497  5.63791821
   2.89546619  7.95650797  5.34902621
   8.14460519  7.95650797  5.63791821
   0.15811081  2.69202497  2.59045029
   5.40724981  2.69202497  2.87934229
   0.15811081  7.95650797  2.59045029
   5.40724981  7.95650797  2.87934229
 


--------------------------------------------------------------------------------------------------------


 k-point  1 :   0.0000 0.0000 0.0000  plane waves:   48191
 k-point  2 :   0.5000 0.0000-0.0000  plane waves:   48200
 k-point  3 :   0.0000 0.5000 0.0000  plane waves:   48222
 k-point  4 :   0.5000 0.5000-0.0000  plane waves:   48160
 k-point  5 :   0.0000 0.0000 0.5000  plane waves:   48132
 k-point  6 :   0.5000 0.0000 0.5000  plane waves:   48182
 k-point  7 :   0.0000 0.5000 0.5000  plane waves:   48172
 k-point  8 :   0.5000 0.5000 0.5000  plane waves:   48112

 maximum and minimum number of plane-waves per node :     48222    48112

 maximum number of plane-waves:     48222
 maximum index in each direction: 
   IXMAX=   22   IYMAX=   22   IZMAX=   22
   IXMIN=  -23   IYMIN=  -23   IZMIN=  -22


 serial   3D FFT for wavefunctions
 parallel 3D FFT for charge:
    minimum data exchange during FFTs selected (reduces bandwidth)


 total amount of memory used by VASP MPI-rank0   348353. kBytes
=======================================================================

   base      :      30000. kBytes
   nonl-proj :     216760. kBytes
   fftplans  :       4588. kBytes
   grid      :      69719. kBytes
   one-center:       1990. kBytes
   wavefun   :      25296. kBytes
 
     INWAV:  cpu time    0.0000: real time    0.0000
 Broyden mixing: mesh for mixing (old mesh)
   NGX = 45   NGY = 45   NGZ = 45
  (NGX  =192   NGY  =192   NGZ  =180)
  gives a total of  91125 points

 initial charge density was supplied:
 number of electron     687.9999924 magnetization       0.0000000
 keeping initial charge density in first step


--------------------------------------------------------------------------------------------------------


 Maximum index for augmentation-charges          895 (set IRDMAX)


--------------------------------------------------------------------------------------------------------


 First call to EWALD:  gamma=   0.169
 Maximum number of real-space cells 3x 3x 3
 Maximum number of reciprocal cells 3x 3x 3

    FEWALD:  cpu time    0.0028: real time    0.0028


--------------------------------------- Iteration      1(   1)  ---------------------------------------


    POTLOK:  cpu time    0.3654: real time    0.4298
    SETDIJ:  cpu time    0.0147: real time    0.0148
     EDDAV:  cpu time   83.3463: real time   84.2956
 BZINTS: Fermi energy: 15.020306;688.000000 electrons
         Band energy:***********;  BLOECHL correction: -0.010031
       DOS:  cpu time    0.0417: real time    0.0419
    --------------------------------------------
      LOOP:  cpu time   83.7681: real time   84.7821

 eigenvalue-minimisations  : 16384
 total energy-change (2. order) : 0.6055987E+04  (-0.5164181E+05)
 number of electron     687.9999924 magnetization       0.0000000
 augmentation part      687.9999924 magnetization       0.0000000

 Free energy of the ion-electron system (eV)
  ---------------------------------------------------
  alpha Z        PSCENC =      2367.06806359
  Ewald energy   TEWEN  =    -62612.90495226
  -Hartree energ DENC   =    -42839.12849334
  -exchange      EXHF   =         0.00000000
  -V(xc)+E(xc)   XCENC  =      3285.48254860
  PAW double counting   =    112137.10810081  -115828.64214528
  entropy T*S    EENTRO =         0.00000000
  eigenvalues    EBANDS =     -4473.06103261
  atomic energy  EATOM  =    114020.06510763
  Solvation  Ediel_sol  =         0.00000000
  ---------------------------------------------------
  free energy    TOTEN  =      6055.98719713 eV

  energy without entropy =     6055.98719713  energy(sigma->0) =     6055.98719713


--------------------------------------------------------------------------------------------------------




--------------------------------------- Iteration      1(   2)  ---------------------------------------


     EDDAV:  cpu time   88.4226: real time   89.0990
 BZINTS: Fermi energy:  5.649418;688.000000 electrons
         Band energy:***********;  BLOECHL correction:  0.000000
       DOS:  cpu time    0.0057: real time    0.0057
    --------------------------------------------
      LOOP:  cpu time   88.4282: real time   89.1047

 eigenvalue-minimisations  : 16896
 total energy-change (2. order) :-0.6122754E+04  (-0.6012892E+04)
 number of electron     687.9999924 magnetization       0.0000000
 augmentation part      687.9999924 magnetization       0.0000000

 Free energy of the ion-electron system (eV)
  ---------------------------------------------------
  alpha Z        PSCENC =      2367.06806359
  Ewald energy   TEWEN  =    -62612.90495226
  -Hartree energ DENC   =    -42839.12849334
  -exchange      EXHF   =         0.00000000
  -V(xc)+E(xc)   XCENC  =      3285.48254860
  PAW double counting   =    112137.10810081  -115828.64214528
  entropy T*S    EENTRO =         0.00000000
  eigenvalues    EBANDS =    -10595.81510314
  atomic energy  EATOM  =    114020.06510763
  Solvation  Ediel_sol  =         0.00000000
  ---------------------------------------------------
  free energy    TOTEN  =       -66.76687340 eV

  energy without entropy =      -66.76687340  energy(sigma->0) =      -66.76687340


--------------------------------------------------------------------------------------------------------




--------------------------------------- Iteration      1(   3)  ---------------------------------------


     EDDAV:  cpu time  173.2284: real time  174.3885
 BZINTS: Fermi energy:  5.075788;688.000000 electrons
         Band energy:***********;  BLOECHL correction:  0.000000
       DOS:  cpu time    0.0069: real time    0.0069
    --------------------------------------------
      LOOP:  cpu time  173.2353: real time  174.3954

 eigenvalue-minimisations  : 24064
 total energy-change (2. order) :-0.2571507E+03  (-0.2560296E+03)
 number of electron     687.9999924 magnetization       0.0000000
 augmentation part      687.9999924 magnetization       0.0000000

 Free energy of the ion-electron system (eV)
  ---------------------------------------------------
  alpha Z        PSCENC =      2367.06806359
  Ewald energy   TEWEN  =    -62612.90495226
  -Hartree energ DENC   =    -42839.12849334
  -exchange      EXHF   =         0.00000000
  -V(xc)+E(xc)   XCENC  =      3285.48254860
  PAW double counting   =    112137.10810081  -115828.64214528
  entropy T*S    EENTRO =         0.00000000
  eigenvalues    EBANDS =    -10852.96583803
  atomic energy  EATOM  =    114020.06510763
  Solvation  Ediel_sol  =         0.00000000
  ---------------------------------------------------
  free energy    TOTEN  =      -323.91760828 eV

  energy without entropy =     -323.91760828  energy(sigma->0) =     -323.91760828


--------------------------------------------------------------------------------------------------------




--------------------------------------- Iteration      1(   4)  ---------------------------------------


     EDDAV:  cpu time   98.7582: real time   99.4883
 BZINTS: Fermi energy:  4.969288;688.000000 electrons
         Band energy:***********;  BLOECHL correction:  0.000000
       DOS:  cpu time    0.0064: real time    0.0064
    --------------------------------------------
      LOOP:  cpu time   98.7646: real time   99.4947

 eigenvalue-minimisations  : 17408
 total energy-change (2. order) :-0.3470061E+01  (-0.3469902E+01)
 number of electron     687.9999924 magnetization       0.0000000
 augmentation part      687.9999924 magnetization       0.0000000

 Free energy of the ion-electron system (eV)
  ---------------------------------------------------
  alpha Z        PSCENC =      2367.06806359
  Ewald energy   TEWEN  =    -62612.90495226
  -Hartree energ DENC   =    -42839.12849334
  -exchange      EXHF   =         0.00000000
  -V(xc)+E(xc)   XCENC  =      3285.48254860
  PAW double counting   =    112137.10810081  -115828.64214528
  entropy T*S    EENTRO =         0.00000000
  eigenvalues    EBANDS =    -10856.43589907
  atomic energy  EATOM  =    114020.06510763
  Solvation  Ediel_sol  =         0.00000000
  ---------------------------------------------------
  free energy    TOTEN  =      -327.38766932 eV

  energy without entropy =     -327.38766932  energy(sigma->0) =     -327.38766932


--------------------------------------------------------------------------------------------------------




--------------------------------------- Iteration      1(   5)  ---------------------------------------


     EDDAV:  cpu time  169.6184: real time  170.7557
 BZINTS: Fermi energy:  5.008495;688.000000 electrons
         Band energy:***********;  BLOECHL correction:  0.000000
       DOS:  cpu time    0.0055: real time    0.0055
    CHARGE:  cpu time    1.3832: real time    1.3935
    MIXING:  cpu time    0.0047: real time    0.0048
    --------------------------------------------
      LOOP:  cpu time  171.0118: real time  172.1595

 eigenvalue-minimisations  : 23552
 total energy-change (2. order) :-0.1016510E+00  (-0.1016503E+00)
 number of electron     688.0000050 magnetization       0.0000000
 augmentation part      282.6254307 magnetization       0.0000000

 Broyden mixing:
  rms(total) = 0.66099E+00    rms(broyden)= 0.66091E+00
  rms(prec ) = 0.73661E+00
  weight for this iteration     100.00

 Free energy of the ion-electron system (eV)
  ---------------------------------------------------
  alpha Z        PSCENC =      2367.06806359
  Ewald energy   TEWEN  =    -62612.90495226
  -Hartree energ DENC   =    -42839.12849334
  -exchange      EXHF   =         0.00000000
  -V(xc)+E(xc)   XCENC  =      3285.48254860
  PAW double counting   =    112137.10810081  -115828.64214528
  entropy T*S    EENTRO =         0.00000000
  eigenvalues    EBANDS =    -10856.53755003
  atomic energy  EATOM  =    114020.06510763
  Solvation  Ediel_sol  =         0.00000000
  ---------------------------------------------------
  free energy    TOTEN  =      -327.48932029 eV

  energy without entropy =     -327.48932029  energy(sigma->0) =     -327.48932029


--------------------------------------------------------------------------------------------------------




--------------------------------------- Iteration      1(   6)  ---------------------------------------


    POTLOK:  cpu time    0.1211: real time    0.1221
    SETDIJ:  cpu time    0.0127: real time    0.0128
     EDDAV:  cpu time  181.8595: real time  183.0902
 BZINTS: Fermi energy:  5.028718;688.000000 electrons
         Band energy:***********;  BLOECHL correction:  0.000000
       DOS:  cpu time    0.0058: real time    0.0058
    CHARGE:  cpu time    1.3799: real time    1.3899
    MIXING:  cpu time    0.0027: real time    0.1661
    --------------------------------------------
      LOOP:  cpu time  183.3818: real time  184.7870

 eigenvalue-minimisations  : 26112
 total energy-change (2. order) : 0.4983738E+00  (-0.6939858E-01)
 number of electron     688.0000049 magnetization       0.0000000
 augmentation part      282.0031057 magnetization       0.0000000

 Broyden mixing:
  rms(total) = 0.36789E+00    rms(broyden)= 0.36788E+00
  rms(prec ) = 0.40958E+00
  weight for this iteration     100.00

 eigenvalues of (default mixing * dielectric matrix)
  average eigenvalue GAMMA=   0.8375
  0.8375

 Free energy of the ion-electron system (eV)
  ---------------------------------------------------
  alpha Z        PSCENC =      2367.06806359
  Ewald energy   TEWEN  =    -62612.90495226
  -Hartree energ DENC   =    -42878.27087860
  -exchange      EXHF   =         0.00000000
  -V(xc)+E(xc)   XCENC  =      3286.79590022
  PAW double counting   =    112264.63916791  -115960.69203885
  entropy T*S    EENTRO =         0.00000000
  eigenvalues    EBANDS =    -10813.69131615
  atomic energy  EATOM  =    114020.06510763
  Solvation  Ediel_sol  =         0.00000000
  ---------------------------------------------------
  free energy    TOTEN  =      -326.99094650 eV

  energy without entropy =     -326.99094650  energy(sigma->0) =     -326.99094650


--------------------------------------------------------------------------------------------------------




--------------------------------------- Iteration      1(   7)  ---------------------------------------


    POTLOK:  cpu time    0.1217: real time    0.1228
    SETDIJ:  cpu time    0.0129: real time    0.0129
     EDDAV:  cpu time  151.2750: real time  152.3109
 BZINTS: Fermi energy:  5.006475;688.000000 electrons
         Band energy:***********;  BLOECHL correction:  0.000000
       DOS:  cpu time    0.0055: real time    0.0055
    CHARGE:  cpu time    1.3812: real time    1.3897
    MIXING:  cpu time    0.0016: real time    0.0159
    --------------------------------------------
      LOOP:  cpu time  152.7979: real time  153.8578

 eigenvalue-minimisations  : 22272
 total energy-change (2. order) : 0.1130184E+00  (-0.7608322E-01)
 number of electron     688.0000049 magnetization       0.0000000
 augmentation part      282.4267689 magnetization       0.0000000

 Broyden mixing:
  rms(total) = 0.28165E+00    rms(broyden)= 0.28165E+00
  rms(prec ) = 0.32520E+00
  weight for this iteration     100.00

 eigenvalues of (default mixing * dielectric matrix)
  average eigenvalue GAMMA=   1.0557
  1.5289  0.5825

 Free energy of the ion-electron system (eV)
  ---------------------------------------------------
  alpha Z        PSCENC =      2367.06806359
  Ewald energy   TEWEN  =    -62612.90495226
  -Hartree energ DENC   =    -42845.79158536
  -exchange      EXHF   =         0.00000000
  -V(xc)+E(xc)   XCENC  =      3285.89381870
  PAW double counting   =    112194.90776177  -115885.03166370
  entropy T*S    EENTRO =         0.00000000
  eigenvalues    EBANDS =    -10851.08447849
  atomic energy  EATOM  =    114020.06510763
  Solvation  Ediel_sol  =         0.00000000
  ---------------------------------------------------
  free energy    TOTEN  =      -326.87792813 eV

  energy without entropy =     -326.87792813  energy(sigma->0) =     -326.87792813


--------------------------------------------------------------------------------------------------------




--------------------------------------- Iteration      1(   8)  ---------------------------------------


    POTLOK:  cpu time    0.1210: real time    0.1218
    SETDIJ:  cpu time    0.0126: real time    0.0127
     EDDAV:  cpu time  156.6893: real time  157.7580
 BZINTS: Fermi energy:  5.030882;688.000000 electrons
         Band energy:***********;  BLOECHL correction:  0.000000
       DOS:  cpu time    0.0055: real time    0.0055
    CHARGE:  cpu time    1.3791: real time    1.3890
    MIXING:  cpu time    0.0012: real time    0.0012
    --------------------------------------------
      LOOP:  cpu time  158.2087: real time  159.2883

 eigenvalue-minimisations  : 22784
 total energy-change (2. order) : 0.3337658E-01  (-0.9319617E-01)
 number of electron     688.0000049 magnetization       0.0000000
 augmentation part      282.3847948 magnetization       0.0000000

 Broyden mixing:
  rms(total) = 0.26813E+00    rms(broyden)= 0.26812E+00
  rms(prec ) = 0.30953E+00
  weight for this iteration     100.00

 eigenvalues of (default mixing * dielectric matrix)
  average eigenvalue GAMMA=   0.8686
  1.7521  0.5837  0.2700

 Free energy of the ion-electron system (eV)
  ---------------------------------------------------
  alpha Z        PSCENC =      2367.06806359
  Ewald energy   TEWEN  =    -62612.90495226
  -Hartree energ DENC   =    -42863.28321929
  -exchange      EXHF   =         0.00000000
  -V(xc)+E(xc)   XCENC  =      3286.70782914
  PAW double counting   =    112190.99295376  -115882.51247909
  entropy T*S    EENTRO =         0.00000000
  eigenvalues    EBANDS =    -10832.97785503
  atomic energy  EATOM  =    114020.06510763
  Solvation  Ediel_sol  =         0.00000000
  ---------------------------------------------------
  free energy    TOTEN  =      -326.84455155 eV

  energy without entropy =     -326.84455155  energy(sigma->0) =     -326.84455155


--------------------------------------------------------------------------------------------------------




--------------------------------------- Iteration      1(   9)  ---------------------------------------


    POTLOK:  cpu time    0.1183: real time    0.1229
    SETDIJ:  cpu time    0.0129: real time    0.0129
     EDDAV:  cpu time  147.3796: real time  148.3922
 BZINTS: Fermi energy:  5.023217;688.000000 electrons
         Band energy:***********;  BLOECHL correction:  0.000000
       DOS:  cpu time    0.0055: real time    0.0055
    CHARGE:  cpu time    1.3793: real time    1.3878
    MIXING:  cpu time    0.0015: real time    0.0317
    --------------------------------------------
      LOOP:  cpu time  148.8971: real time  149.9531

 eigenvalue-minimisations  : 22272
 total energy-change (2. order) : 0.2269632E-01  (-0.1977740E-01)
 number of electron     688.0000049 magnetization       0.0000000
 augmentation part      282.2810776 magnetization       0.0000000

 Broyden mixing:
  rms(total) = 0.67745E-01    rms(broyden)= 0.67742E-01
  rms(prec ) = 0.72294E-01
  weight for this iteration     100.00

 eigenvalues of (default mixing * dielectric matrix)
  average eigenvalue GAMMA=   0.8854
  1.9738  0.7173  0.5098  0.3406

 Free energy of the ion-electron system (eV)
  ---------------------------------------------------
  alpha Z        PSCENC =      2367.06806359
  Ewald energy   TEWEN  =    -62612.90495226
  -Hartree energ DENC   =    -42863.96062457
  -exchange      EXHF   =         0.00000000
  -V(xc)+E(xc)   XCENC  =      3286.51833636
  PAW double counting   =    112189.76168421  -115882.00080572
  entropy T*S    EENTRO =         0.00000000
  eigenvalues    EBANDS =    -10831.36866446
  atomic energy  EATOM  =    114020.06510763
  Solvation  Ediel_sol  =         0.00000000
  ---------------------------------------------------
  free energy    TOTEN  =      -326.82185522 eV

  energy without entropy =     -326.82185522  energy(sigma->0) =     -326.82185522


--------------------------------------------------------------------------------------------------------




--------------------------------------- Iteration      1(  10)  ---------------------------------------


    POTLOK:  cpu time    0.1208: real time    0.1220
    SETDIJ:  cpu time    0.0129: real time    0.0130
     EDDAV:  cpu time  160.4344: real time  161.5283
 BZINTS: Fermi energy:  5.022470;688.000000 electrons
         Band energy:***********;  BLOECHL correction:  0.000000
       DOS:  cpu time    0.0055: real time    0.0055
    CHARGE:  cpu time    1.3894: real time    1.4000
    MIXING:  cpu time    0.0015: real time    0.0015
    --------------------------------------------
      LOOP:  cpu time  161.9645: real time  163.0703

 eigenvalue-minimisations  : 22784
 total energy-change (2. order) :-0.6790001E-03  (-0.1425755E-02)
 number of electron     688.0000049 magnetization       0.0000000
 augmentation part      282.2297867 magnetization       0.0000000

 Broyden mixing:
  rms(total) = 0.41595E-01    rms(broyden)= 0.41594E-01
  rms(prec ) = 0.43395E-01
  weight for this iteration     100.00

 eigenvalues of (default mixing * dielectric matrix)
  average eigenvalue GAMMA=   0.9744
  1.8248  1.5092  0.6498  0.5474  0.3409

 Free energy of the ion-electron system (eV)
  ---------------------------------------------------
  alpha Z        PSCENC =      2367.06806359
  Ewald energy   TEWEN  =    -62612.90495226
  -Hartree energ DENC   =    -42865.33628110
  -exchange      EXHF   =         0.00000000
  -V(xc)+E(xc)   XCENC  =      3286.51212437
  PAW double counting   =    112188.20222776  -115880.48583160
  entropy T*S    EENTRO =         0.00000000
  eigenvalues    EBANDS =    -10829.94299261
  atomic energy  EATOM  =    114020.06510763
  Solvation  Ediel_sol  =         0.00000000
  ---------------------------------------------------
  free energy    TOTEN  =      -326.82253423 eV

  energy without entropy =     -326.82253423  energy(sigma->0) =     -326.82253423


--------------------------------------------------------------------------------------------------------




--------------------------------------- Iteration      1(  11)  ---------------------------------------


    POTLOK:  cpu time    0.1211: real time    0.1222
    SETDIJ:  cpu time    0.0128: real time    0.0128
     EDDAV:  cpu time  133.2708: real time  134.2004
 BZINTS: Fermi energy:  5.022103;688.000000 electrons
         Band energy:***********;  BLOECHL correction:  0.000000
       DOS:  cpu time    0.0055: real time    0.0055
    CHARGE:  cpu time    1.3797: real time    1.3903
    MIXING:  cpu time    0.0015: real time    0.0015
    --------------------------------------------
      LOOP:  cpu time  134.7914: real time  135.7328

 eigenvalue-minimisations  : 20480
 total energy-change (2. order) :-0.8594261E-03  (-0.4257490E-03)
 number of electron     688.0000049 magnetization       0.0000000
 augmentation part      282.2602701 magnetization       0.0000000

 Broyden mixing:
  rms(total) = 0.19986E-01    rms(broyden)= 0.19985E-01
  rms(prec ) = 0.20365E-01
  weight for this iteration     100.00

 eigenvalues of (default mixing * dielectric matrix)
  average eigenvalue GAMMA=   1.1162
  2.1311  2.1311  0.8263  0.3379  0.6353  0.6353

 Free energy of the ion-electron system (eV)
  ---------------------------------------------------
  alpha Z        PSCENC =      2367.06806359
  Ewald energy   TEWEN  =    -62612.90495226
  -Hartree energ DENC   =    -42863.70616538
  -exchange      EXHF   =         0.00000000
  -V(xc)+E(xc)   XCENC  =      3286.46769322
  PAW double counting   =    112180.15999877  -115872.04895737
  entropy T*S    EENTRO =         0.00000000
  eigenvalues    EBANDS =    -10831.92418186
  atomic energy  EATOM  =    114020.06510763
  Solvation  Ediel_sol  =         0.00000000
  ---------------------------------------------------
  free energy    TOTEN  =      -326.82339365 eV

  energy without entropy =     -326.82339365  energy(sigma->0) =     -326.82339365


--------------------------------------------------------------------------------------------------------




--------------------------------------- Iteration      1(  12)  ---------------------------------------


    POTLOK:  cpu time    0.1214: real time    0.1233
    SETDIJ:  cpu time    0.0132: real time    0.0133
     EDDAV:  cpu time  150.3009: real time  151.3304
 BZINTS: Fermi energy:  5.022563;688.000000 electrons
         Band energy:***********;  BLOECHL correction:  0.000000
       DOS:  cpu time    0.0055: real time    0.0056
    CHARGE:  cpu time    1.3791: real time    1.3877
    MIXING:  cpu time    0.0015: real time    0.0015
    --------------------------------------------
      LOOP:  cpu time  151.8217: real time  152.8617

 eigenvalue-minimisations  : 22016
 total energy-change (2. order) :-0.5839715E-03  (-0.1735165E-03)
 number of electron     688.0000049 magnetization       0.0000000
 augmentation part      282.2472149 magnetization       0.0000000

 Broyden mixing:
  rms(total) = 0.81631E-02    rms(broyden)= 0.81625E-02
  rms(prec ) = 0.86090E-02
  weight for this iteration     100.00

 eigenvalues of (default mixing * dielectric matrix)
  average eigenvalue GAMMA=   1.0972
  2.2230  2.2230  0.9221  0.3379  0.7071  0.6338  0.6338

 Free energy of the ion-electron system (eV)
  ---------------------------------------------------
  alpha Z        PSCENC =      2367.06806359
  Ewald energy   TEWEN  =    -62612.90495226
  -Hartree energ DENC   =    -42864.56370406
  -exchange      EXHF   =         0.00000000
  -V(xc)+E(xc)   XCENC  =      3286.49220333
  PAW double counting   =    112173.73354496  -115865.75197951
  entropy T*S    EENTRO =         0.00000000
  eigenvalues    EBANDS =    -10830.96226130
  atomic energy  EATOM  =    114020.06510763
  Solvation  Ediel_sol  =         0.00000000
  ---------------------------------------------------
  free energy    TOTEN  =      -326.82397762 eV

  energy without entropy =     -326.82397762  energy(sigma->0) =     -326.82397762


--------------------------------------------------------------------------------------------------------




--------------------------------------- Iteration      1(  13)  ---------------------------------------


    POTLOK:  cpu time    0.1207: real time    0.1216
    SETDIJ:  cpu time    0.0126: real time    0.0126
     EDDAV:  cpu time  126.6850: real time  127.5741
 BZINTS: Fermi energy:  5.022357;688.000000 electrons
         Band energy:***********;  BLOECHL correction:  0.000000
       DOS:  cpu time    0.0055: real time    0.0056
    CHARGE:  cpu time    1.3848: real time    1.3940
    MIXING:  cpu time    0.0017: real time    0.0018
    --------------------------------------------
      LOOP:  cpu time  128.2103: real time  129.1095

 eigenvalue-minimisations  : 19712
 total energy-change (2. order) :-0.1121256E-03  (-0.2611653E-04)
 number of electron     688.0000049 magnetization       0.0000000
 augmentation part      282.2558609 magnetization       0.0000000

 Broyden mixing:
  rms(total) = 0.55197E-02    rms(broyden)= 0.55194E-02
  rms(prec ) = 0.58457E-02
  weight for this iteration     100.00

 eigenvalues of (default mixing * dielectric matrix)
  average eigenvalue GAMMA=   1.1021
  2.2574  2.2574  1.0640  1.0640  0.3379  0.5908  0.5908  0.6544

 Free energy of the ion-electron system (eV)
  ---------------------------------------------------
  alpha Z        PSCENC =      2367.06806359
  Ewald energy   TEWEN  =    -62612.90495226
  -Hartree energ DENC   =    -42864.09084294
  -exchange      EXHF   =         0.00000000
  -V(xc)+E(xc)   XCENC  =      3286.48165132
  PAW double counting   =    112171.36817345  -115863.32965181
  entropy T*S    EENTRO =         0.00000000
  eigenvalues    EBANDS =    -10831.48163873
  atomic energy  EATOM  =    114020.06510763
  Solvation  Ediel_sol  =         0.00000000
  ---------------------------------------------------
  free energy    TOTEN  =      -326.82408975 eV

  energy without entropy =     -326.82408975  energy(sigma->0) =     -326.82408975


--------------------------------------------------------------------------------------------------------




--------------------------------------- Iteration      1(  14)  ---------------------------------------


    POTLOK:  cpu time    0.1260: real time    0.1302
    SETDIJ:  cpu time    0.0132: real time    0.0133
     EDDAV:  cpu time  163.7080: real time  164.8120
 BZINTS: Fermi energy:  5.022373;688.000000 electrons
         Band energy:***********;  BLOECHL correction:  0.000000
       DOS:  cpu time    0.0055: real time    0.0056
    CHARGE:  cpu time    1.3770: real time    1.3875
    MIXING:  cpu time    0.0018: real time    0.0018
    --------------------------------------------
      LOOP:  cpu time  165.2315: real time  166.3503

 eigenvalue-minimisations  : 23040
 total energy-change (2. order) :-0.7129583E-04  (-0.1836820E-04)
 number of electron     688.0000049 magnetization       0.0000000
 augmentation part      282.2513806 magnetization       0.0000000

 Broyden mixing:
  rms(total) = 0.30767E-02    rms(broyden)= 0.30764E-02
  rms(prec ) = 0.32566E-02
  weight for this iteration     100.00

 eigenvalues of (default mixing * dielectric matrix)
  average eigenvalue GAMMA=   1.1920
  2.4525  2.4525  1.4542  1.4542  0.3379  0.5986  0.5986  0.6897  0.6897

 Free energy of the ion-electron system (eV)
  ---------------------------------------------------
  alpha Z        PSCENC =      2367.06806359
  Ewald energy   TEWEN  =    -62612.90495226
  -Hartree energ DENC   =    -42864.29397082
  -exchange      EXHF   =         0.00000000
  -V(xc)+E(xc)   XCENC  =      3286.48503511
  PAW double counting   =    112170.33818242  -115862.35103752
  entropy T*S    EENTRO =         0.00000000
  eigenvalues    EBANDS =    -10831.23058920
  atomic energy  EATOM  =    114020.06510763
  Solvation  Ediel_sol  =         0.00000000
  ---------------------------------------------------
  free energy    TOTEN  =      -326.82416104 eV

  energy without entropy =     -326.82416104  energy(sigma->0) =     -326.82416104


--------------------------------------------------------------------------------------------------------




--------------------------------------- Iteration      1(  15)  ---------------------------------------


    POTLOK:  cpu time    0.1202: real time    0.1210
    SETDIJ:  cpu time    0.0126: real time    0.0126
     EDDAV:  cpu time  128.2041: real time  129.1025
 BZINTS: Fermi energy:  5.022330;688.000000 electrons
         Band energy:***********;  BLOECHL correction:  0.000000
       DOS:  cpu time    0.0056: real time    0.0056
    CHARGE:  cpu time    1.3773: real time    1.3868
    MIXING:  cpu time    0.0018: real time    0.0018
    --------------------------------------------
      LOOP:  cpu time  129.7215: real time  130.6303

 eigenvalue-minimisations  : 19968
 total energy-change (2. order) :-0.4589310E-04  (-0.1502642E-04)
 number of electron     688.0000049 magnetization       0.0000000
 augmentation part      282.2512506 magnetization       0.0000000

 Broyden mixing:
  rms(total) = 0.17346E-02    rms(broyden)= 0.17343E-02
  rms(prec ) = 0.19485E-02
  weight for this iteration     100.00

 eigenvalues of (default mixing * dielectric matrix)
  average eigenvalue GAMMA=   1.2341
  3.0927  2.2054  2.0276  1.0780  1.0780  0.3379  0.5929  0.5929  0.7102  0.6256

 Free energy of the ion-electron system (eV)
  ---------------------------------------------------
  alpha Z        PSCENC =      2367.06806359
  Ewald energy   TEWEN  =    -62612.90495226
  -Hartree energ DENC   =    -42864.27235841
  -exchange      EXHF   =         0.00000000
  -V(xc)+E(xc)   XCENC  =      3286.48581117
  PAW double counting   =    112169.39960524  -115861.42379280
  entropy T*S    EENTRO =         0.00000000
  eigenvalues    EBANDS =    -10831.24169110
  atomic energy  EATOM  =    114020.06510763
  Solvation  Ediel_sol  =         0.00000000
  ---------------------------------------------------
  free energy    TOTEN  =      -326.82420694 eV

  energy without entropy =     -326.82420694  energy(sigma->0) =     -326.82420694


--------------------------------------------------------------------------------------------------------




--------------------------------------- Iteration      1(  16)  ---------------------------------------


    POTLOK:  cpu time    0.1206: real time    0.1220
    SETDIJ:  cpu time    0.0126: real time    0.0127
     EDDAV:  cpu time  156.5595: real time  157.6164
 BZINTS: Fermi energy:  5.022351;688.000000 electrons
         Band energy:***********;  BLOECHL correction:  0.000000
       DOS:  cpu time    0.0055: real time    0.0056
    CHARGE:  cpu time    1.3788: real time    1.3885
    MIXING:  cpu time    0.0019: real time    0.0174
    --------------------------------------------
      LOOP:  cpu time  158.0791: real time  159.1625

 eigenvalue-minimisations  : 22016
 total energy-change (2. order) :-0.1328574E-04  (-0.4766237E-05)
 number of electron     688.0000049 magnetization       0.0000000
 augmentation part      282.2527401 magnetization       0.0000000

 Broyden mixing:
  rms(total) = 0.10951E-02    rms(broyden)= 0.10949E-02
  rms(prec ) = 0.11596E-02
  weight for this iteration     100.00

 eigenvalues of (default mixing * dielectric matrix)
  average eigenvalue GAMMA=   1.2701
  3.3113  2.1532  2.1532  1.3106  1.3106  0.3379  0.8723  0.5905  0.5905  0.7127
  0.6283

 Free energy of the ion-electron system (eV)
  ---------------------------------------------------
  alpha Z        PSCENC =      2367.06806359
  Ewald energy   TEWEN  =    -62612.90495226
  -Hartree energ DENC   =    -42864.23080363
  -exchange      EXHF   =         0.00000000
  -V(xc)+E(xc)   XCENC  =      3286.48581050
  PAW double counting   =    112168.88238274  -115860.90287089
  entropy T*S    EENTRO =         0.00000000
  eigenvalues    EBANDS =    -10831.28695791
  atomic energy  EATOM  =    114020.06510763
  Solvation  Ediel_sol  =         0.00000000
  ---------------------------------------------------
  free energy    TOTEN  =      -326.82422022 eV

  energy without entropy =     -326.82422022  energy(sigma->0) =     -326.82422022


--------------------------------------------------------------------------------------------------------




--------------------------------------- Iteration      1(  17)  ---------------------------------------


    POTLOK:  cpu time    0.1208: real time    0.1217
    SETDIJ:  cpu time    0.0126: real time    0.0127
     EDDAV:  cpu time  117.4402: real time  118.2836
 BZINTS: Fermi energy:  5.022364;688.000000 electrons
         Band energy:***********;  BLOECHL correction:  0.000000
       DOS:  cpu time    0.0057: real time    0.0057
    CHARGE:  cpu time    1.3783: real time    1.3875
    MIXING:  cpu time    0.0019: real time    0.0019
    --------------------------------------------
      LOOP:  cpu time  118.9595: real time  119.8131

 eigenvalue-minimisations  : 18944
 total energy-change (2. order) :-0.6022630E-05  (-0.2980845E-05)
 number of electron     688.0000049 magnetization      -0.0000000
 augmentation part      282.2526692 magnetization      -0.0000000

 Broyden mixing:
  rms(total) = 0.63927E-03    rms(broyden)= 0.63905E-03
  rms(prec ) = 0.70840E-03
  weight for this iteration     100.00

 eigenvalues of (default mixing * dielectric matrix)
  average eigenvalue GAMMA=   1.3605
  4.0313  2.3272  2.3272  1.5851  1.5851  0.3379  0.8872  0.7620  0.5940  0.5940
  0.6674  0.6276

 Free energy of the ion-electron system (eV)
  ---------------------------------------------------
  alpha Z        PSCENC =      2367.06806359
  Ewald energy   TEWEN  =    -62612.90495226
  -Hartree energ DENC   =    -42864.24102394
  -exchange      EXHF   =         0.00000000
  -V(xc)+E(xc)   XCENC  =      3286.48576494
  PAW double counting   =    112169.08246295  -115861.10621238
  entropy T*S    EENTRO =         0.00000000
  eigenvalues    EBANDS =    -10831.27343678
  atomic energy  EATOM  =    114020.06510763
  Solvation  Ediel_sol  =         0.00000000
  ---------------------------------------------------
  free energy    TOTEN  =      -326.82422625 eV

  energy without entropy =     -326.82422625  energy(sigma->0) =     -326.82422625


--------------------------------------------------------------------------------------------------------




--------------------------------------- Iteration      1(  18)  ---------------------------------------


    POTLOK:  cpu time    0.1177: real time    0.1204
    SETDIJ:  cpu time    0.0126: real time    0.0127
     EDDAV:  cpu time  193.9953: real time  195.2849
 BZINTS: Fermi energy:  5.022347;688.000000 electrons
         Band energy:***********;  BLOECHL correction:  0.000000
       DOS:  cpu time    0.0055: real time    0.0056
    CHARGE:  cpu time    1.3776: real time    1.3859
    MIXING:  cpu time    0.0020: real time    0.0020
    --------------------------------------------
      LOOP:  cpu time  195.5109: real time  196.8115

 eigenvalue-minimisations  : 26112
 total energy-change (2. order) :-0.1399618E-05  (-0.1148426E-05)
 number of electron     688.0000049 magnetization      -0.0000000
 augmentation part      282.2525482 magnetization      -0.0000000

 Broyden mixing:
  rms(total) = 0.27290E-03    rms(broyden)= 0.27268E-03
  rms(prec ) = 0.28650E-03
  weight for this iteration     100.00

 eigenvalues of (default mixing * dielectric matrix)
  average eigenvalue GAMMA=   1.3656
  4.4754  2.4111  2.4111  1.6620  1.3292  0.9890  0.9890  0.3379  0.5931  0.5931
  0.7067  0.6278  0.6278

 Free energy of the ion-electron system (eV)
  ---------------------------------------------------
  alpha Z        PSCENC =      2367.06806359
  Ewald energy   TEWEN  =    -62612.90495226
  -Hartree energ DENC   =    -42864.23207140
  -exchange      EXHF   =         0.00000000
  -V(xc)+E(xc)   XCENC  =      3286.48548347
  PAW double counting   =    112169.28083586  -115861.30244611
  entropy T*S    EENTRO =         0.00000000
  eigenvalues    EBANDS =    -10831.28424843
  atomic energy  EATOM  =    114020.06510763
  Solvation  Ediel_sol  =         0.00000000
  ---------------------------------------------------
  free energy    TOTEN  =      -326.82422765 eV

  energy without entropy =     -326.82422765  energy(sigma->0) =     -326.82422765


--------------------------------------------------------------------------------------------------------




--------------------------------------- Iteration      1(  19)  ---------------------------------------


    POTLOK:  cpu time    0.1205: real time    0.1217
    SETDIJ:  cpu time    0.0125: real time    0.0126
     EDDAV:  cpu time  138.5095: real time  139.4781
 BZINTS: Fermi energy:  5.022342;688.000000 electrons
         Band energy:***********;  BLOECHL correction:  0.000000
       DOS:  cpu time    0.0055: real time    0.0056
    CHARGE:  cpu time    1.3771: real time    1.3874
    MIXING:  cpu time    0.0020: real time    0.0020
    --------------------------------------------
      LOOP:  cpu time  140.0271: real time  141.0074

 eigenvalue-minimisations  : 21760
 total energy-change (2. order) :-0.1131848E-06  (-0.9636075E-07)
 number of electron     688.0000049 magnetization       0.0000000
 augmentation part      282.2524808 magnetization       0.0000000

 Broyden mixing:
[...]
   -.404E+02 0.393E+02 -.277E+01   0.412E+02 -.395E+02 0.281E+01   -.796E+00 0.256E+00 -.359E-01   0.384E-05 -.103E-04 0.543E-05
   -.404E+02 0.393E+02 -.277E+01   0.412E+02 -.395E+02 0.281E+01   -.796E+00 0.256E+00 -.359E-01   0.381E-05 -.103E-04 0.544E-05
   -.404E+02 0.393E+02 -.277E+01   0.412E+02 -.395E+02 0.281E+01   -.796E+00 0.256E+00 -.359E-01   0.384E-05 -.103E-04 0.543E-05
   -.404E+02 0.393E+02 -.277E+01   0.412E+02 -.395E+02 0.281E+01   -.796E+00 0.256E+00 -.359E-01   0.381E-05 -.103E-04 0.544E-05
   0.404E+02 0.393E+02 0.277E+01   -.412E+02 -.395E+02 -.281E+01   0.796E+00 0.256E+00 0.359E-01   -.383E-05 -.103E-04 -.543E-05
   0.404E+02 0.393E+02 0.277E+01   -.412E+02 -.395E+02 -.281E+01   0.796E+00 0.256E+00 0.359E-01   -.383E-05 -.103E-04 -.543E-05
   0.404E+02 0.393E+02 0.277E+01   -.412E+02 -.395E+02 -.281E+01   0.796E+00 0.256E+00 0.359E-01   -.383E-05 -.103E-04 -.544E-05
   0.404E+02 0.393E+02 0.277E+01   -.412E+02 -.395E+02 -.281E+01   0.796E+00 0.256E+00 0.359E-01   -.383E-05 -.103E-04 -.544E-05
   -.876E-10 -.146E+02 -.118E-08   0.114E-12 0.152E+02 0.142E-13   0.872E-24 -.633E+00 0.414E-24   -.758E-09 -.295E-05 -.166E-08
   -.845E-10 -.146E+02 -.118E-08   0.105E-12 0.152E+02 -.888E-15   0.120E-24 -.633E+00 0.672E-24   0.733E-09 -.295E-05 0.166E-08
   -.876E-10 -.146E+02 -.118E-08   0.114E-12 0.152E+02 -.426E-13   -.963E-24 -.633E+00 -.176E-23   -.758E-09 -.298E-05 -.166E-08
   -.860E-10 -.146E+02 -.118E-08   0.107E-12 0.152E+02 -.426E-13   -.711E-25 -.633E+00 0.827E-24   0.732E-09 -.298E-05 0.166E-08
   -.249E-07 0.708E+02 -.218E-06   0.107E-13 -.719E+02 0.123E-12   -.300E-24 0.106E+01 0.000E+00   0.178E-07 -.847E-05 -.975E-09
   -.249E-07 0.708E+02 -.218E-06   0.178E-13 -.719E+02 0.639E-13   0.504E-24 0.106E+01 0.310E-24   -.178E-07 -.847E-05 0.975E-09
   -.249E-07 0.708E+02 -.218E-06   -.213E-13 -.719E+02 0.146E-12   0.845E-24 0.106E+01 -.414E-24   0.178E-07 -.847E-05 -.975E-09
   -.249E-07 0.708E+02 -.218E-06   0.284E-13 -.719E+02 0.114E-12   -.775E-25 0.106E+01 0.517E-24   -.178E-07 -.847E-05 0.975E-09
   0.646E+01 -.361E+02 0.365E+01   -.640E+01 0.347E+02 -.372E+01   -.616E-01 0.144E+01 0.734E-01   -.603E-06 -.143E-04 -.537E-06
   0.646E+01 -.361E+02 0.365E+01   -.640E+01 0.347E+02 -.372E+01   -.616E-01 0.144E+01 0.734E-01   -.675E-06 -.143E-04 -.534E-06
   0.646E+01 -.361E+02 0.365E+01   -.640E+01 0.347E+02 -.372E+01   -.616E-01 0.144E+01 0.734E-01   -.603E-06 -.144E-04 -.533E-06
   0.646E+01 -.361E+02 0.365E+01   -.640E+01 0.347E+02 -.372E+01   -.616E-01 0.144E+01 0.734E-01   -.675E-06 -.144E-04 -.531E-06
   -.646E+01 -.361E+02 -.365E+01   0.640E+01 0.347E+02 0.372E+01   0.616E-01 0.144E+01 -.734E-01   0.678E-06 -.143E-04 0.533E-06
   -.646E+01 -.361E+02 -.365E+01   0.640E+01 0.347E+02 0.372E+01   0.616E-01 0.144E+01 -.734E-01   0.600E-06 -.143E-04 0.538E-06
   -.646E+01 -.361E+02 -.365E+01   0.640E+01 0.347E+02 0.372E+01   0.616E-01 0.144E+01 -.734E-01   0.678E-06 -.144E-04 0.529E-06
   -.646E+01 -.361E+02 -.365E+01   0.640E+01 0.347E+02 0.372E+01   0.616E-01 0.144E+01 -.734E-01   0.600E-06 -.144E-04 0.535E-06
   0.646E+01 -.361E+02 0.365E+01   -.640E+01 0.347E+02 -.372E+01   -.616E-01 0.144E+01 0.734E-01   -.594E-06 -.143E-04 -.533E-06
   0.646E+01 -.361E+02 0.365E+01   -.640E+01 0.347E+02 -.372E+01   -.616E-01 0.144E+01 0.734E-01   -.683E-06 -.143E-04 -.538E-06
   0.646E+01 -.361E+02 0.365E+01   -.640E+01 0.347E+02 -.372E+01   -.616E-01 0.144E+01 0.734E-01   -.595E-06 -.144E-04 -.529E-06
   0.646E+01 -.361E+02 0.365E+01   -.640E+01 0.347E+02 -.372E+01   -.616E-01 0.144E+01 0.734E-01   -.683E-06 -.144E-04 -.534E-06
   -.646E+01 -.361E+02 -.365E+01   0.640E+01 0.347E+02 0.372E+01   0.616E-01 0.144E+01 -.734E-01   0.672E-06 -.143E-04 0.529E-06
   -.646E+01 -.361E+02 -.365E+01   0.640E+01 0.347E+02 0.372E+01   0.616E-01 0.144E+01 -.734E-01   0.606E-06 -.143E-04 0.542E-06
   -.646E+01 -.361E+02 -.365E+01   0.640E+01 0.347E+02 0.372E+01   0.616E-01 0.144E+01 -.734E-01   0.672E-06 -.144E-04 0.525E-06
   -.646E+01 -.361E+02 -.365E+01   0.640E+01 0.347E+02 0.372E+01   0.616E-01 0.144E+01 -.734E-01   0.606E-06 -.144E-04 0.538E-06
   -.100E+02 -.350E+02 0.501E+01   0.984E+01 0.332E+02 -.513E+01   0.175E+00 0.187E+01 0.108E+00   0.199E-04 -.331E-05 0.268E-06
   -.100E+02 -.350E+02 0.501E+01   0.984E+01 0.332E+02 -.513E+01   0.175E+00 0.187E+01 0.108E+00   0.198E-04 -.331E-05 0.272E-06
   -.100E+02 -.350E+02 0.501E+01   0.984E+01 0.332E+02 -.513E+01   0.175E+00 0.187E+01 0.108E+00   0.199E-04 -.338E-05 0.265E-06
   -.100E+02 -.350E+02 0.501E+01   0.984E+01 0.332E+02 -.513E+01   0.175E+00 0.187E+01 0.108E+00   0.198E-04 -.338E-05 0.270E-06
   0.100E+02 -.350E+02 -.501E+01   -.984E+01 0.332E+02 0.513E+01   -.175E+00 0.187E+01 -.108E+00   -.198E-04 -.331E-05 -.271E-06
   0.100E+02 -.350E+02 -.501E+01   -.984E+01 0.332E+02 0.513E+01   -.175E+00 0.187E+01 -.108E+00   -.199E-04 -.331E-05 -.269E-06
   0.100E+02 -.350E+02 -.501E+01   -.984E+01 0.332E+02 0.513E+01   -.175E+00 0.187E+01 -.108E+00   -.198E-04 -.338E-05 -.269E-06
   0.100E+02 -.350E+02 -.501E+01   -.984E+01 0.332E+02 0.513E+01   -.175E+00 0.187E+01 -.108E+00   -.199E-04 -.338E-05 -.266E-06
   -.100E+02 -.350E+02 0.501E+01   0.984E+01 0.332E+02 -.513E+01   0.175E+00 0.187E+01 0.108E+00   0.199E-04 -.331E-05 0.265E-06
   -.100E+02 -.350E+02 0.501E+01   0.984E+01 0.332E+02 -.513E+01   0.175E+00 0.187E+01 0.108E+00   0.198E-04 -.331E-05 0.276E-06
   -.100E+02 -.350E+02 0.501E+01   0.984E+01 0.332E+02 -.513E+01   0.175E+00 0.187E+01 0.108E+00   0.199E-04 -.337E-05 0.262E-06
   -.100E+02 -.350E+02 0.501E+01   0.984E+01 0.332E+02 -.513E+01   0.175E+00 0.187E+01 0.108E+00   0.198E-04 -.337E-05 0.273E-06
   0.100E+02 -.350E+02 -.501E+01   -.984E+01 0.332E+02 0.513E+01   -.175E+00 0.187E+01 -.108E+00   -.198E-04 -.331E-05 -.268E-06
   0.100E+02 -.350E+02 -.501E+01   -.984E+01 0.332E+02 0.513E+01   -.175E+00 0.187E+01 -.108E+00   -.199E-04 -.331E-05 -.272E-06
   0.100E+02 -.350E+02 -.501E+01   -.984E+01 0.332E+02 0.513E+01   -.175E+00 0.187E+01 -.108E+00   -.198E-04 -.337E-05 -.265E-06
   0.100E+02 -.350E+02 -.501E+01   -.984E+01 0.332E+02 0.513E+01   -.175E+00 0.187E+01 -.108E+00   -.199E-04 -.337E-05 -.269E-06
 -----------------------------------------------------------------------------------------------
   0.671E-05 -.604E+02 0.221E-03   -.350E-12 -.711E-13 -.369E-12   0.139E-14 0.604E+02 -.694E-16   -.643E-11 -.540E-03 -.114E-10
 
 
 POSITION                                       TOTAL-FORCE (eV/Angst)
 -----------------------------------------------------------------------------------
      1.39976      1.24185      1.38310        -0.000011     -0.005154      0.001178
      6.64890      1.24185      1.67199        -0.000011     -0.005154      0.001178
      1.39976      6.50633      1.38310        -0.000011     -0.005154      0.001178
      6.64890      6.50633      1.67199        -0.000011     -0.005154      0.001178
      3.99238      3.87409      1.50413         0.000011     -0.005154     -0.001178
      9.24152      3.87409      1.79303         0.000011     -0.005154     -0.001178
      3.99238      9.13857      1.50413         0.000011     -0.005154     -0.001178
      9.24152      9.13857      1.79303         0.000011     -0.005154     -0.001178
      1.81279      3.89357      9.16643         0.000000     -0.003309      0.000000
      7.06193      3.89357      9.45532         0.000000     -0.003309      0.000000
      1.81279      9.15805      9.16643         0.000000     -0.003309      0.000000
      7.06193      9.15805      9.45532         0.000000     -0.003309      0.000000
      4.43736      1.27693      9.31087         0.000000     -0.001554      0.000000
      9.68650      1.27693      9.59976         0.000000     -0.001554      0.000000
      4.43736      6.54141      9.31087         0.000000     -0.001554      0.000000
      9.68650      6.54141      9.59976         0.000000     -0.001554      0.000000
      1.65381      1.24185      6.55637         0.000011     -0.005154     -0.001178
      6.90295      1.24185      6.84527         0.000011     -0.005154     -0.001178
      1.65381      6.50633      6.55637         0.000011     -0.005154     -0.001178
      6.90295      6.50633      6.84527         0.000011     -0.005154     -0.001178
      4.31034      3.87409      6.72424        -0.000011     -0.005154      0.001178
      9.55948      3.87409      7.01313        -0.000011     -0.005154      0.001178
      4.31034      9.13857      6.72424        -0.000011     -0.005154      0.001178
      9.55948      9.13857      7.01313        -0.000011     -0.005154      0.001178
      4.15136      1.26133      4.11418         0.000000     -0.003309      0.000000
      9.40050      1.26133      4.40308         0.000000     -0.003309      0.000000
      4.15136      6.52581      4.11418         0.000000     -0.003309      0.000000
      9.40050      6.52581      4.40308         0.000000     -0.003309      0.000000
      1.52679      3.90917      3.96974         0.000000     -0.001554      0.000000
      6.77593      3.90917      4.25863         0.000000     -0.001554      0.000000
      1.52679      9.17366      3.96974         0.000000     -0.001554      0.000000
      6.77593      9.17366      4.25863         0.000000     -0.001554      0.000000
     10.75746      0.06148      5.77311         0.000355      0.003144     -0.002704
      5.50832      0.06148      5.48422         0.000355      0.003144     -0.002704
     10.75746      5.32596      5.77311         0.000355      0.003144     -0.002704
      5.50832      5.32596      5.48422         0.000355      0.003144     -0.002704
      2.79440      0.06148      2.74415        -0.000355      0.003144      0.002704
      8.04354      0.06148      3.03304        -0.000355      0.003144      0.002704
      2.79440      5.32596      2.74415        -0.000355      0.003144      0.002704
      8.04354      5.32596      3.03304        -0.000355      0.003144      0.002704
      2.59774      2.69372      0.14308         0.000355      0.003144     -0.002704
      7.84688      2.69372      0.43198         0.000355      0.003144     -0.002704
      2.59774      7.95820      0.14308         0.000355      0.003144     -0.002704
      7.84688      7.95820      0.43198         0.000355      0.003144     -0.002704
      0.45583      2.69372      7.79639        -0.000355      0.003144      0.002704
      5.70497      2.69372      8.08528        -0.000355      0.003144      0.002704
      0.45583      7.95820      7.79639        -0.000355      0.003144      0.002704
      5.70497      7.95820      8.08528        -0.000355      0.003144      0.002704
     10.48317      0.05978      0.58568         0.001396      0.004441     -0.005530
      5.23403      0.05978      0.29679         0.001396      0.004441     -0.005530
     10.48317      5.32427      0.58568         0.001396      0.004441     -0.005530
      5.23403      5.32427      0.29679         0.001396      0.004441     -0.005530
      3.06869      0.05978      7.93158        -0.001396      0.004441      0.005530
      8.31782      0.05978      8.22048        -0.001396      0.004441      0.005530
      3.06869      5.32427      7.93158        -0.001396      0.004441      0.005530
      8.31782      5.32427      8.22048        -0.001396      0.004441      0.005530
      2.89547      2.69202      5.34903         0.001396      0.004441     -0.005530
      8.14461      2.69202      5.63792         0.001396      0.004441     -0.005530
      2.89547      7.95651      5.34903         0.001396      0.004441     -0.005530
      8.14461      7.95651      5.63792         0.001396      0.004441     -0.005530
      0.15811      2.69202      2.59045        -0.001396      0.004441      0.005530
      5.40725      2.69202      2.87934        -0.001396      0.004441      0.005530
      0.15811      7.95651      2.59045        -0.001396      0.004441      0.005530
      5.40725      7.95651      2.87934        -0.001396      0.004441      0.005530
 -----------------------------------------------------------------------------------
    total drift:                                0.000007     -0.025881      0.000221


--------------------------------------------------------------------------------------------------------



  FREE ENERGIE OF THE ION-ELECTRON SYSTEM (eV)
  ---------------------------------------------------
  free  energy   TOTEN  =      -326.82422782 eV

  energy  without entropy=     -326.82422782  energy(sigma->0) =     -326.82422782
 


--------------------------------------------------------------------------------------------------------


    POTLOK:  cpu time    0.1298: real time    0.1307


--------------------------------------------------------------------------------------------------------


 writing wavefunctions
     LOOP+:  cpu time 3376.0053: real time 3400.1566
    4ORBIT:  cpu time    0.0000: real time    0.0000
 


 total charge     
 
# of ion       s       p       d       tot
------------------------------------------
    1        1.315   2.406   0.000   3.721
    2        1.315   2.406   0.000   3.721
    3        1.315   2.406   0.000   3.721
    4        1.315   2.406   0.000   3.721
    5        1.315   2.406   0.000   3.721
    6        1.315   2.406   0.000   3.721
    7        1.315   2.406   0.000   3.721
    8        1.315   2.406   0.000   3.721
    9        1.317   2.400   0.000   3.717
   10        1.317   2.400   0.000   3.717
   11        1.317   2.400   0.000   3.717
   12        1.317   2.400   0.000   3.717
   13        1.313   2.411   0.000   3.724
   14        1.313   2.411   0.000   3.724
   15        1.313   2.411   0.000   3.724
   16        1.313   2.411   0.000   3.724
   17        1.315   2.406   0.000   3.721
   18        1.315   2.406   0.000   3.721
   19        1.315   2.406   0.000   3.721
   20        1.315   2.406   0.000   3.721
   21        1.315   2.406   0.000   3.721
   22        1.315   2.406   0.000   3.721
   23        1.315   2.406   0.000   3.721
   24        1.315   2.406   0.000   3.721
   25        1.317   2.400   0.000   3.717
   26        1.317   2.400   0.000   3.717
   27        1.317   2.400   0.000   3.717
   28        1.317   2.400   0.000   3.717
   29        1.313   2.411   0.000   3.724
   30        1.313   2.411   0.000   3.724
   31        1.313   2.411   0.000   3.724
   32        1.313   2.411   0.000   3.724
   33        0.258   6.200   8.917  15.375
   34        0.258   6.200   8.917  15.375
   35        0.258   6.200   8.917  15.375
   36        0.258   6.200   8.917  15.375
   37        0.258   6.200   8.917  15.375
   38        0.258   6.200   8.917  15.375
   39        0.258   6.200   8.917  15.375
   40        0.258   6.200   8.917  15.375
   41        0.258   6.200   8.917  15.375
   42        0.258   6.200   8.917  15.375
   43        0.258   6.200   8.917  15.375
   44        0.258   6.200   8.917  15.375
   45        0.258   6.200   8.917  15.375
   46        0.258   6.200   8.917  15.375
   47        0.258   6.200   8.917  15.375
   48        0.258   6.200   8.917  15.375
   49        0.347   6.347   5.824  12.519
   50        0.347   6.347   5.824  12.519
   51        0.347   6.347   5.824  12.519
   52        0.347   6.347   5.824  12.519
   53        0.347   6.347   5.824  12.519
   54        0.347   6.347   5.824  12.519
   55        0.347   6.347   5.824  12.519
   56        0.347   6.347   5.824  12.519
   57        0.347   6.347   5.824  12.519
   58        0.347   6.347   5.824  12.519
   59        0.347   6.347   5.824  12.519
   60        0.347   6.347   5.824  12.519
   61        0.347   6.347   5.824  12.519
   62        0.347   6.347   5.824  12.519
   63        0.347   6.347   5.824  12.519
   64        0.347   6.347   5.824  12.519
--------------------------------------------------
tot         51.764 277.748 235.860 565.372
 


 magnetization (x)
 
# of ion       s       p       d       tot
------------------------------------------
    1       -0.000  -0.027   0.000  -0.027
    2       -0.000  -0.027   0.000  -0.027
    3       -0.000  -0.027   0.000  -0.027
    4       -0.000  -0.027   0.000  -0.027
    5        0.000   0.027   0.000   0.027
    6        0.000   0.027   0.000   0.027
    7        0.000   0.027   0.000   0.027
    8        0.000   0.027   0.000   0.027
    9       -0.000   0.000   0.000   0.000
   10        0.000  -0.000   0.000  -0.000
   11       -0.000   0.000   0.000   0.000
   12        0.000  -0.000   0.000  -0.000
   13       -0.000  -0.000   0.000  -0.000
   14        0.000   0.000   0.000   0.000
   15       -0.000  -0.000   0.000  -0.000
   16        0.000   0.000   0.000   0.000
   17        0.000   0.027   0.000   0.027
   18        0.000   0.027   0.000   0.027
   19        0.000   0.027   0.000   0.027
   20        0.000   0.027   0.000   0.027
   21       -0.000  -0.027   0.000  -0.027
   22       -0.000  -0.027   0.000  -0.027
   23       -0.000  -0.027   0.000  -0.027
   24       -0.000  -0.027   0.000  -0.027
   25       -0.000  -0.000   0.000  -0.000
   26       -0.000  -0.000   0.000  -0.000
   27       -0.000  -0.000   0.000  -0.000
   28       -0.000  -0.000   0.000  -0.000
   29        0.000  -0.000   0.000  -0.000
   30       -0.000   0.000   0.000   0.000
   31        0.000  -0.000   0.000  -0.000
   32       -0.000   0.000   0.000   0.000
   33        0.000   0.001  -0.004  -0.003
   34        0.000   0.001  -0.004  -0.003
   35        0.000   0.001  -0.004  -0.003
   36        0.000   0.001  -0.004  -0.003
   37       -0.000  -0.001   0.004   0.003
   38       -0.000  -0.001   0.004   0.003
   39       -0.000  -0.001   0.004   0.003
   40       -0.000  -0.001   0.004   0.003
   41        0.000   0.001  -0.004  -0.003
   42        0.000   0.001  -0.004  -0.003
   43        0.000   0.001  -0.004  -0.003
   44        0.000   0.001  -0.004  -0.003
   45       -0.000  -0.001   0.004   0.003
   46       -0.000  -0.001   0.004   0.003
   47       -0.000  -0.001   0.004   0.003
   48       -0.000  -0.001   0.004   0.003
   49        0.020   0.054   3.664   3.738
   50        0.020   0.054   3.664   3.738
   51        0.020   0.054   3.664   3.738
   52        0.020   0.054   3.664   3.738
   53       -0.020  -0.054  -3.664  -3.738
   54       -0.020  -0.054  -3.664  -3.738
   55       -0.020  -0.054  -3.664  -3.738
   56       -0.020  -0.054  -3.664  -3.738
   57        0.020   0.054   3.664   3.738
   58        0.020   0.054   3.664   3.738
   59        0.020   0.054   3.664   3.738
   60        0.020   0.054   3.664   3.738
   61       -0.020  -0.054  -3.664  -3.738
   62       -0.020  -0.054  -3.664  -3.738
   63       -0.020  -0.054  -3.664  -3.738
   64       -0.020  -0.054  -3.664  -3.738
--------------------------------------------------
tot          0.000  -0.000   0.000   0.000
 
 BZINTS: Fermi energy:  5.022341;688.000000 electrons
         Band energy:***********;  BLOECHL correction:  0.000000

 total amount of memory used by VASP MPI-rank0   348353. kBytes
=======================================================================

   base      :      30000. kBytes
   nonl-proj :     216760. kBytes
   fftplans  :       4588. kBytes
   grid      :      69719. kBytes
   one-center:       1990. kBytes
   wavefun   :      25296. kBytes
 
  
  
 General timing and accounting informations for this job:
 ========================================================
  
                  Total CPU time used (sec):     3435.190
                            User time (sec):     3424.143
                          System time (sec):       11.048
                         Elapsed time (sec):     3461.205
  
                   Maximum memory used (kb):      724056.
                   Average memory used (kb):           0.
  
                          Minor page faults:       351185
                          Major page faults:         5736
                 Voluntary context switches:         7138
