       N       E                     dE             d eps       ncg     rms          rms(c)
DAV:   1    -0.298464587325E+03   -0.29846E+03   -0.17642E+03 18944   0.243E+02    0.417E+01
DAV:   2    -0.327753994884E+03   -0.29289E+02   -0.29367E+02 13824   0.272E+01    0.170E+01
DAV:   3    -0.328073721516E+03   -0.31973E+00   -0.53883E+00 19456   0.505E+00    0.127E+01
DAV:   4    -0.328053399266E+03    0.20322E-01   -0.68973E-01 14080   0.231E+00    0.106E+01
DAV:   5    -0.328053621607E+03   -0.22234E-03   -0.43641E-02 15616   0.613E-01    0.914E+00
DAV:   6    -0.328053213040E+03    0.40857E-03   -0.37312E-03 15872   0.159E-01    0.732E+00
DAV:   7    -0.328050945044E+03    0.22680E-02   -0.79609E-03 16640   0.269E-01    0.144E+00
DAV:   8    -0.328050978366E+03   -0.33322E-04   -0.33086E-04 13824   0.420E-02    0.101E+00
DAV:   9    -0.328050962514E+03    0.15851E-04   -0.24307E-05 17920   0.115E-02    0.912E-01
DAV:  10    -0.328050915248E+03    0.47266E-04   -0.40812E-04 14848   0.452E-02    0.596E-02
DAV:  11    -0.328050916523E+03   -0.12757E-05   -0.11937E-05 14336   0.660E-03    0.109E-02
DAV:  12    -0.328050916980E+03   -0.45630E-06   -0.13062E-06 20992   0.216E-03    0.368E-02
DAV:  13    -0.328050917801E+03   -0.82108E-06   -0.15354E-06 16384   0.194E-03    0.356E-02
DAV:  14    -0.328050918271E+03   -0.47014E-06   -0.19996E-07 14336   0.653E-04    0.149E-02
DAV:  15    -0.328050918505E+03   -0.23360E-06   -0.25337E-07 16384   0.521E-04    0.882E-03
DAV:  16    -0.328050918579E+03   -0.74098E-07   -0.12519E-07 14848   0.441E-04    0.246E-03
DAV:  17    -0.328050918598E+03   -0.19150E-07   -0.13210E-08 12288   0.169E-04    0.969E-04
DAV:  18    -0.328050918604E+03   -0.64465E-08   -0.16122E-09  9728   0.821E-05
   1 F= -.32805092E+03 E0= -.32805092E+03  d E =-.231175E-29  mag=    -0.0000
