       N       E                     dE             d eps       ncg     rms          rms(c)
DAV:   1    -0.305312762625E+03   -0.30531E+03   -0.13286E+03 18944   0.200E+02    0.310E+01
DAV:   2    -0.327802209993E+03   -0.22489E+02   -0.22521E+02 12800   0.224E+01    0.126E+01
DAV:   3    -0.328076702020E+03   -0.27449E+00   -0.33931E+00 18688   0.335E+00    0.923E+00
DAV:   4    -0.328079013874E+03   -0.23119E-02   -0.15037E-01 14592   0.103E+00    0.797E+00
DAV:   5    -0.328079108455E+03   -0.94581E-04   -0.12806E-02 16896   0.325E-01    0.695E+00
DAV:   6    -0.328078861184E+03    0.24727E-03   -0.63726E-04 15104   0.672E-02    0.637E+00
DAV:   7    -0.328078168749E+03    0.69244E-03   -0.44815E-04 17152   0.658E-02    0.500E+00
DAV:   8    -0.328077681278E+03    0.48747E-03   -0.46557E-04 12800   0.636E-02    0.301E+00
DAV:   9    -0.328077562456E+03    0.11882E-03   -0.81223E-05 17408   0.213E-02    0.239E+00
DAV:  10    -0.328077426912E+03    0.13554E-03   -0.12841E-04 13824   0.296E-02    0.129E+00
DAV:  11    -0.328077375507E+03    0.51405E-04   -0.75694E-05 16640   0.226E-02    0.478E-01
DAV:  12    -0.328077367035E+03    0.84720E-05   -0.86563E-06 13568   0.543E-03    0.216E-01
DAV:  13    -0.328077362897E+03    0.41372E-05   -0.34027E-06 16384   0.353E-03    0.442E-02
DAV:  14    -0.328077362234E+03    0.66348E-06   -0.45625E-07 15360   0.161E-03    0.277E-03
DAV:  15    -0.328077362149E+03    0.84983E-07   -0.23610E-08 13568   0.287E-04    0.208E-03
DAV:  16    -0.328077362171E+03   -0.22323E-07   -0.21243E-09  9216   0.126E-04    0.237E-04
DAV:  17    -0.328077362157E+03    0.13737E-07   -0.47030E-10 12288   0.845E-05    0.482E-04
DAV:  18    -0.328077362147E+03    0.10506E-07    0.61171E-10  9984   0.420E-05    0.126E-04
DAV:  19    -0.328077362148E+03   -0.53842E-09    0.11782E-09 11776   0.209E-05
   1 F= -.32807736E+03 E0= -.32807736E+03  d E =0.000000E+00  mag=     0.0000
