       N       E                     dE             d eps       ncg     rms          ort
SDA:   1    -0.817021963651E+02   -0.81702E+02    0.00000E+00  7488   0.685E-05 0.000E+00
CGA:   2    -0.817021982602E+02   -0.18951E-05   -0.18680E-06  7488   0.563E-05 0.607E-05
CGA:   3    -0.817021988458E+02   -0.58566E-06   -0.44165E-06  7488   0.387E-05 0.456E-05
CGA:   4    -0.817021994957E+02   -0.64992E-06   -0.14665E-06  7488   0.325E-05 0.347E-05
CGA:   5    -0.817021997442E+02   -0.24848E-06   -0.13326E-06  7488   0.272E-05 0.291E-05
CGA:   6    -0.817022001865E+02   -0.44232E-06   -0.96479E-07  7488   0.234E-05 0.242E-05
CGA:   7    -0.817022004361E+02   -0.24959E-06   -0.60938E-07  7488   0.207E-05 0.212E-05
CGA:   8    -0.817022005764E+02   -0.14031E-06   -0.63897E-07  7488   0.183E-05 0.187E-05
CGA:   9    -0.817022007063E+02   -0.12986E-06   -0.41615E-07  7488   0.165E-05 0.167E-05
CGA:  10    -0.817022008214E+02   -0.11509E-06   -0.43642E-07  7488   0.148E-05 0.150E-05
CGA:  11    -0.817022009013E+02   -0.79923E-07   -0.30927E-07  7488   0.135E-05 0.135E-05
CGA:  12    -0.817022009665E+02   -0.65196E-07   -0.31973E-07  7488   0.123E-05 0.123E-05
CGA:  13    -0.817022010491E+02   -0.82618E-07   -0.23299E-07  7488   0.113E-05 0.112E-05
CGA:  14    -0.817022010727E+02   -0.23567E-07   -0.23683E-07  7488   0.104E-05 0.103E-05
CGA:  15    -0.817022011618E+02   -0.89076E-07   -0.18190E-07  7488   0.962E-06 0.951E-06
CGA:  16    -0.817022011643E+02   -0.24884E-08   -0.17475E-07  7488   0.899E-06 0.882E-06
CGA:  17    -0.817022012247E+02   -0.60485E-07   -0.14734E-07  7488   0.836E-06 0.819E-06
CGA:  18    -0.817022012558E+02   -0.31097E-07   -0.13277E-07  7488   0.787E-06 0.766E-06
CGA:  19    -0.817022012816E+02   -0.25771E-07   -0.11592E-07  7488   0.739E-06 0.717E-06
CGA:  20    -0.817022013279E+02   -0.46250E-07   -0.10660E-07  7488   0.699E-06 0.675E-06
CGA:  21    -0.817022013632E+02   -0.35299E-07   -0.88263E-08  7488   0.661E-06 0.638E-06
CGA:  22    -0.817022013910E+02   -0.27885E-07   -0.82960E-08  7488   0.631E-06 0.605E-06
CGA:  23    -0.817022014450E+02   -0.53999E-07   -0.68693E-08  7488   0.601E-06 0.577E-06
CGA:  24    -0.817022015098E+02   -0.64767E-07   -0.60130E-08  7488   0.577E-06 0.554E-06
CGA:  25    -0.817022016050E+02   -0.95224E-07   -0.47066E-08  7488   0.555E-06 0.535E-06
CGA:  26    -0.817022017815E+02   -0.17642E-06   -0.36626E-08  7488   0.536E-06 0.523E-06
CGA:  27    -0.817022019626E+02   -0.18118E-06   -0.24044E-08  7488   0.521E-06 0.516E-06
CGA:  28    -0.817022020143E+02   -0.51648E-07   -0.16843E-08  7488   0.513E-06 0.511E-06
CGA:  29    -0.817022020146E+02   -0.30923E-09   -0.18817E-08  7488   0.505E-06 0.504E-06
   1 F= -.81702202E+02 E0= -.81702202E+02  d E =0.000000E+00  mag=    -0.0000    -0.0000     0.0000
