 vasp.5.4.4.18Apr17-6-g9f103f2a35 (build Oct 30 2023 17:49:44) complex          
  
 executed on             LinuxIFC date 2024.12.10  21:53:46
 running on  256 total cores
 distrk:  each k-point on  256 cores,    1 groups
 distr:  one band on NCORES_PER_BAND=  32 cores,    8 groups


--------------------------------------------------------------------------------------------------------


 INCAR:
 POTCAR:    PAW_PBE S 06Sep2000                   
 POTCAR:     PAW_PBE Cu_pv 06Sep2000              
 POTCAR:     PAW_PBE Fe_pv 02Aug2007              
 POTCAR:    PAW_PBE S 06Sep2000                   
   SHA256 =  0fc7481fb0695f01bdc6462160264c5c84044ae9ec85a907d398b887a2bc3132 S/
   COPYR  = (c) Copyright 06Sep2000 Georg Kresse                                
   COPYR  = This file is part of the software VASP. Any use, copying, and all ot
   COPYR  = If you do not have a valid VASP license, you may not use, copy or di
   VRHFIN =S : s2p4                                                             
   LEXCH  = PE                                                                  
   EATOM  =   276.8230 eV,   20.3459 Ry                                         
                                                                                
   TITEL  = PAW_PBE S 06Sep2000                                                 
   LULTRA =        F    use ultrasoft PP ?                                      
   IUNSCR =        1    unscreen: 0-lin 1-nonlin 2-no                           
   RPACOR =    1.500    partial core radius                                     
   POMASS =   32.066; ZVAL   =    6.000    mass and valenz                      
   RCORE  =    1.900    outmost cutoff radius                                   
   RWIGS  =    2.200; RWIGS  =    1.164    wigner-seitz radius (au A)           
   ENMAX  =  258.689; ENMIN  =  194.016 eV                                      
   ICORE  =        2    local potential                                         
   LCOR   =        T    correct aug charges                                     
   LPAW   =        T    paw PP                                                  
   EAUG   =  335.092                                                            
   DEXC   =    0.000                                                            
   RMAX   =    1.942    core radius for proj-oper                               
   RAUG   =    1.300    factor for augmentation sphere                          
   RDEP   =    1.954    radius for radial grids                                 
   RDEPT  =    1.744    core radius for aug-charge                              
                                                                                
   Atomic configuration                                                         
    6 entries                                                                   
     n  l   j            E        occ.                                          
     1  0  0.50     -2405.8406   2.0000                                         
     2  0  0.50      -211.7007   2.0000                                         
     2  1  1.50      -156.4958   6.0000                                         
     3  0  0.50       -17.2562   2.0000                                         
     3  1  0.50        -7.0085   4.0000                                         
     3  2  1.50        -6.8029   0.0000                                         
   Description                                                                  
     l       E           TYP  RCUT    TYP  RCUT                                 
     0    -17.2561641     23  1.900                                             
     0    -15.8743224     23  1.900                                             
     1     -7.0085400     23  1.900                                             
     1     -2.7779785     23  1.900                                             
     2     -6.8029130     23  1.900                                             
  local pseudopotential read in
  partial core-charges read in
  partial kinetic energy density read in
  atomic valenz-charges read in
  non local Contribution for L=           0  read in
    real space projection operators read in
  non local Contribution for L=           0  read in
    real space projection operators read in
  non local Contribution for L=           1  read in
    real space projection operators read in
  non local Contribution for L=           1  read in
    real space projection operators read in
    PAW grid and wavefunctions read in
 
   number of l-projection  operators is LMAX  =           4
   number of lm-projection operators is LMMAX =           8
 
 POTCAR:     PAW_PBE Cu_pv 06Sep2000              
   SHA256 =  cb7b504e2ea725fe1f25c85a9ac77d4012ce94cd394135b722c4e25ec297f1cb Cu
   COPYR  = (c) Copyright 06Sep2000 Georg Kresse                                
   COPYR  = This file is part of the software VASP. Any use, copying, and all ot
   COPYR  = If you do not have a valid VASP license, you may not use, copy or di
   VRHFIN =Cu: d10 p1                                                           
   LEXCH  = PE                                                                  
   EATOM  =  4120.1201 eV,  302.8203 Ry                                         
                                                                                
   TITEL  = PAW_PBE Cu_pv 06Sep2000                                             
   LULTRA =        F    use ultrasoft PP ?                                      
   IUNSCR =        1    unscreen: 0-lin 1-nonlin 2-no                           
   RPACOR =    1.500    partial core radius                                     
   POMASS =   63.546; ZVAL   =   17.000    mass and valenz                      
   RCORE  =    2.000    outmost cutoff radius                                   
   RWIGS  =    2.000; RWIGS  =    1.058    wigner-seitz radius (au A)           
   ENMAX  =  368.648; ENMIN  =  276.486 eV                                      
   RCLOC  =    1.304    cutoff for local pot                                    
   LCOR   =        T    correct aug charges                                     
   LPAW   =        T    paw PP                                                  
   EAUG   =  758.233                                                            
   DEXC   =    0.000                                                            
   RMAX   =    2.046    core radius for proj-oper                               
   RAUG   =    1.300    factor for augmentation sphere                          
   RDEP   =    2.025    radius for radial grids                                 
   RDEPT  =    1.558    core radius for aug-charge                              
                                                                                
   Atomic configuration                                                         
    8 entries                                                                   
     n  l   j            E        occ.                                          
     1  0  0.50     -8850.2467   2.0000                                         
     2  0  0.50     -1062.3498   2.0000                                         
     2  1  1.50      -916.8226   6.0000                                         
     3  0  0.50      -114.6929   2.0000                                         
     3  1  1.50       -72.1325   6.0000                                         
     3  2  2.50        -5.0394  10.0000                                         
     4  0  0.50        -4.6097   1.0000                                         
     4  3  2.50        -1.3606   0.0000                                         
   Description                                                                  
     l       E           TYP  RCUT    TYP  RCUT                                 
     1    -72.1324777     23  1.700                                             
     1     -1.3605826     23  1.700                                             
     2     -5.0393776     23  2.000                                             
     2     -6.3999602     23  2.000                                             
     0     -4.6097062     23  1.800                                             
     0     14.1620818     23  1.800                                             
  local pseudopotential read in
  partial core-charges read in
  partial kinetic energy density read in
  atomic valenz-charges read in
  non local Contribution for L=           1  read in
    real space projection operators read in
  non local Contribution for L=           1  read in
    real space projection operators read in
  non local Contribution for L=           2  read in
    real space projection operators read in
  non local Contribution for L=           2  read in
    real space projection operators read in
  non local Contribution for L=           0  read in
    real space projection operators read in
  non local Contribution for L=           0  read in
    real space projection operators read in
    PAW grid and wavefunctions read in
 
   number of l-projection  operators is LMAX  =           6
   number of lm-projection operators is LMMAX =          18
 
 POTCAR:     PAW_PBE Fe_pv 02Aug2007              
   SHA256 =  5d22e414b1f82158bf2c7ecb8b97b28fd0923e48cadc1c3bf74d524558f5dd32 Fe
   COPYR  = (c) Copyright 02Aug2007 Georg Kresse                                
   COPYR  = This file is part of the software VASP. Any use, copying, and all ot
   COPYR  = If you do not have a valid VASP license, you may not use, copy or di
   VRHFIN =Fe:  3pd7s1                                                          
   LEXCH  = PE                                                                  
   EATOM  =  2457.4239 eV,  180.6156 Ry                                         
                                                                                
   TITEL  = PAW_PBE Fe_pv 02Aug2007                                             
   LULTRA =        F    use ultrasoft PP ?                                      
   IUNSCR =        1    unscreen: 0-lin 1-nonlin 2-no                           
   RPACOR =    1.750    partial core radius                                     
   POMASS =   55.847; ZVAL   =   14.000    mass and valenz                      
   RCORE  =    2.200    outmost cutoff radius                                   
   RWIGS  =    2.200; RWIGS  =    1.164    wigner-seitz radius (au A)           
   ENMAX  =  293.238; ENMIN  =  219.928 eV                                      
   ICORE  =        3    local potential                                         
   LCOR   =        T    correct aug charges                                     
   LPAW   =        T    paw PP                                                  
   EAUG   =  578.342                                                            
   DEXC   =    0.000                                                            
   RMAX   =    2.249    core radius for proj-oper                               
   RAUG   =    1.300    factor for augmentation sphere                          
   RDEP   =    2.296    radius for radial grids                                 
   RDEPT  =    1.766    core radius for aug-charge                              
                                                                                
   Atomic configuration                                                         
    8 entries                                                                   
     n  l   j            E        occ.                                          
     1  0  0.50     -6993.8440   2.0000                                         
     2  0  0.50      -814.6047   2.0000                                         
     2  1  1.50      -693.3689   6.0000                                         
     3  0  0.50       -89.4732   2.0000                                         
     3  1  1.50       -55.6373   6.0000                                         
     3  2  2.50        -3.8151   7.0000                                         
     4  0  0.50        -4.2551   1.0000                                         
     4  3  2.50        -1.3606   0.0000                                         
   Description                                                                  
     l       E           TYP  RCUT    TYP  RCUT                                 
     1    -55.6372668     23  2.000                                             
     1     -5.4423304     23  2.000                                             
     2     -3.8151096     23  2.200                                             
     2     -5.1756922     23  2.200                                             
     0     -4.2550951     23  2.200                                             
     0     27.2116520     23  2.200                                             
     3     -1.3605826     23  2.200                                             
  local pseudopotential read in
  partial core-charges read in
  partial kinetic energy density read in
  atomic valenz-charges read in
  non local Contribution for L=           1  read in
    real space projection operators read in
  non local Contribution for L=           1  read in
    real space projection operators read in
  non local Contribution for L=           2  read in
    real space projection operators read in
  non local Contribution for L=           2  read in
    real space projection operators read in
  non local Contribution for L=           0  read in
    real space projection operators read in
  non local Contribution for L=           0  read in
    real space projection operators read in
    PAW grid and wavefunctions read in
 
   number of l-projection  operators is LMAX  =           6
   number of lm-projection operators is LMMAX =          18
 

 ----------------------------------------------------------------------------- 
|                                                                             |
|  ADVICE TO THIS USER RUNNING 'VASP/VAMP'   (HEAR YOUR MASTER'S VOICE ...):  |
|                                                                             |
|      You enforced a specific xc-type in the INCAR file,                     |
|      a different type was found on the POTCAR file                          |
|          I HOPE YOU KNOW, WHAT YOU ARE  DOING                               |
|                                                                             |
 ----------------------------------------------------------------------------- 

  PAW_PBE S 06Sep2000                   :
 energy of atom  1       EATOM= -276.8230
 kinetic energy error for atom=    0.0007 (will be added to EATOM!!)
   PAW_PBE Cu_pv 06Sep2000              :
 energy of atom  2       EATOM=-4120.1201
 kinetic energy error for atom=    0.0094 (will be added to EATOM!!)
   PAW_PBE Fe_pv 02Aug2007              :
 energy of atom  3       EATOM=-2457.4239
 kinetic energy error for atom=    0.0025 (will be added to EATOM!!)
 
 
 POSCAR: sm_isp_SD0310437-standardized_unitcell  
  positions in direct lattice
  velocities in cartesian coordinates
 exchange correlation table for  LEXCH =       14
   RHO(1)=    0.500       N(1)  =     2000
   RHO(2)=  100.500       N(2)  =     4000
 


--------------------------------------------------------------------------------------------------------


 ion  position               nearest neighbor table
   1  0.252  0.250  0.125-  10 2.24  11 2.24  16 2.26  13 2.26
   2  0.748  0.750  0.125-  10 2.24  11 2.24  16 2.26  13 2.26
   3  0.250  0.747  0.875-  11 2.25  12 2.25  14 2.26  13 2.26
   4  0.750  0.253  0.875-  11 2.25  12 2.25  14 2.26  13 2.26
   5  0.248  0.250  0.625-   9 2.24  12 2.24  15 2.26  14 2.26
   6  0.752  0.750  0.625-   9 2.24  12 2.24  15 2.26  14 2.26
   7  0.750  0.247  0.375-  10 2.25   9 2.25  15 2.26  16 2.26
   8  0.250  0.753  0.375-  10 2.25   9 2.25  15 2.26  16 2.26
   9  0.000  0.000  0.501-   5 2.24   6 2.24   7 2.25   8 2.25
  10  0.500  0.000  0.249-   1 2.24   2 2.24   7 2.25   8 2.25
  11  0.500  0.500  0.001-   1 2.24   2 2.24   4 2.25   3 2.25
  12  0.000  0.500  0.749-   5 2.24   6 2.24   4 2.25   3 2.25
  13  0.000  0.000  1.000-   2 2.26   1 2.26   3 2.26   4 2.26
  14  0.500  0.000  0.750-   6 2.26   5 2.26   3 2.26   4 2.26
  15  0.500  0.500  0.500-   6 2.26   5 2.26   8 2.26   7 2.26
  16  0.000  0.500  0.250-   2 2.26   1 2.26   8 2.26   7 2.26
 
  LATTYP: Found a simple orthorhombic cell.
 ALAT       =     4.9958463727
 B/A-ratio  =     1.1257230141
 C/A-ratio  =     1.9792277963
  
  Lattice vectors:
  
 A1 = (   4.9958463727,   0.0000000000,   0.0000000000)
 A2 = (   0.0000000000,   5.6239392368,   0.0000000000)
 A3 = (   0.0000000000,   0.0000000000,   9.8879180071)


Analysis of symmetry for initial positions (statically):
=====================================================================
 Subroutine PRICEL returns following result:
 
  LATTYP: Found a body centered orthorhombic cell.
 ALAT       =     4.9958463727
 B/A-ratio  =     1.1257230141
 C/A-ratio  =     1.9792277963
  
  Lattice vectors:
  
 A1 = (   2.4979231864,  -2.8119696184,   4.9439590035)
 A2 = (  -2.4979231864,   2.8119696184,   4.9439590035)
 A3 = (  -2.4979231864,  -2.8119696184,  -4.9439590035)
 
   2 primitive cells build up your supercell.
 

 Routine SETGRP: Setting up the symmetry group for a 
 simple orthorhombic supercell.


 Subroutine GETGRP returns: Found  4 space group operations
 (whereof  2 operations were pure point group operations)
 out of a pool of  8 trial point group operations.


The static configuration has the point symmetry C_2 .
 The point group associated with its full space group is D_2 .


Analysis of symmetry for dynamics (positions and initial velocities):
=====================================================================
 Subroutine PRICEL returns following result:
 
  LATTYP: Found a body centered orthorhombic cell.
 ALAT       =     4.9958463727
 B/A-ratio  =     1.1257230141
 C/A-ratio  =     1.9792277963
  
  Lattice vectors:
  
 A1 = (   2.4979231864,  -2.8119696184,   4.9439590035)
 A2 = (  -2.4979231864,   2.8119696184,   4.9439590035)
 A3 = (  -2.4979231864,  -2.8119696184,  -4.9439590035)
 
   2 primitive cells build up your supercell.
 

 Routine SETGRP: Setting up the symmetry group for a 
 simple orthorhombic supercell.


 Subroutine GETGRP returns: Found  4 space group operations
 (whereof  2 operations were pure point group operations)
 out of a pool of  8 trial point group operations.


The dynamic configuration has the point symmetry C_2 .
 The point group associated with its full space group is D_2 .


Analysis of structural, dynamic, and magnetic symmetry:
=====================================================================
 Subroutine PRICEL returns following result:
 
  LATTYP: Found a body centered orthorhombic cell.
 ALAT       =     4.9958463727
 B/A-ratio  =     1.1257230141
 C/A-ratio  =     1.9792277963
  
  Lattice vectors:
  
 A1 = (   2.4979231864,  -2.8119696184,   4.9439590035)
 A2 = (  -2.4979231864,   2.8119696184,   4.9439590035)
 A3 = (  -2.4979231864,  -2.8119696184,  -4.9439590035)
 
   2 primitive cells build up your supercell.
 

 Routine SETGRP: Setting up the symmetry group for a 
 simple orthorhombic supercell.


 Subroutine GETGRP returns: Found  4 space group operations
 (whereof  2 operations were pure point group operations)
 out of a pool of  8 trial point group operations.


The (compounded) configuration has the point symmetry C_2 .
 The point group associated with its full space group is D_2 .


 Subroutine INISYM returns: Found  4 space group operations
 (whereof  2 operations are pure point group operations),
 and found     2 'primitive' translations

 
 
 KPOINTS: Automatic mesh                          

Automatic generation of k-mesh.
Space group operators:
 irot       det(A)        alpha          n_x          n_y          n_z        tau_x        tau_y        tau_z
    1     1.000000     0.000001     1.000000     0.000000     0.000000     0.000000     0.000000     0.000000
    2     1.000000   180.000000     0.000000     0.000000     1.000000     0.000000     0.000000     0.000000
    3     1.000000   180.000000     0.000000     1.000000     0.000000     0.000000    -0.500000     0.250000
    4     1.000000   179.999999     1.000000     0.000000     0.000000     0.000000    -0.500000     0.250000
 
 Subroutine IBZKPT returns following result:
 ===========================================
 
 Found     36 irreducible k-points:
 
 Following reciprocal coordinates:
            Coordinates               Weight
  0.000000  0.000000  0.000000      1.000000
  0.166667  0.000000  0.000000      2.000000
  0.333333  0.000000  0.000000      2.000000
  0.500000  0.000000  0.000000      1.000000
  0.000000  0.166667  0.000000      2.000000
  0.166667  0.166667  0.000000      4.000000
  0.333333  0.166667  0.000000      4.000000
  0.500000  0.166667  0.000000      2.000000
  0.000000  0.333333  0.000000      2.000000
  0.166667  0.333333  0.000000      4.000000
  0.333333  0.333333  0.000000      4.000000
  0.500000  0.333333  0.000000      2.000000
  0.000000  0.500000  0.000000      1.000000
  0.166667  0.500000  0.000000      2.000000
  0.333333  0.500000  0.000000      2.000000
  0.500000  0.500000  0.000000      1.000000
  0.000000  0.000000  0.333333      2.000000
  0.166667  0.000000  0.333333      4.000000
  0.333333  0.000000  0.333333      4.000000
  0.500000  0.000000  0.333333      2.000000
  0.000000  0.166667  0.333333      4.000000
  0.166667  0.166667  0.333333      4.000000
  0.333333  0.166667  0.333333      4.000000
  0.500000  0.166667  0.333333      4.000000
 -0.333333  0.166667  0.333333      4.000000
 -0.166667  0.166667  0.333333      4.000000
  0.000000  0.333333  0.333333      4.000000
  0.166667  0.333333  0.333333      4.000000
  0.333333  0.333333  0.333333      4.000000
  0.500000  0.333333  0.333333      4.000000
 -0.333333  0.333333  0.333333      4.000000
 -0.166667  0.333333  0.333333      4.000000
  0.000000  0.500000  0.333333      2.000000
  0.166667  0.500000  0.333333      4.000000
  0.333333  0.500000  0.333333      4.000000
  0.500000  0.500000  0.333333      2.000000
 
 Following cartesian coordinates:
            Coordinates               Weight
  0.000000  0.000000  0.000000      1.000000
  0.033361  0.000000  0.000000      2.000000
  0.066722  0.000000  0.000000      2.000000
  0.100083  0.000000  0.000000      1.000000
  0.000000  0.029635  0.000000      2.000000
  0.033361  0.029635  0.000000      4.000000
  0.066722  0.029635  0.000000      4.000000
  0.100083  0.029635  0.000000      2.000000
  0.000000  0.059270  0.000000      2.000000
  0.033361  0.059270  0.000000      4.000000
  0.066722  0.059270  0.000000      4.000000
  0.100083  0.059270  0.000000      2.000000
  0.000000  0.088906  0.000000      1.000000
  0.033361  0.088906  0.000000      2.000000
  0.066722  0.088906  0.000000      2.000000
  0.100083  0.088906  0.000000      1.000000
  0.000000  0.000000  0.033711      2.000000
  0.033361  0.000000  0.033711      4.000000
  0.066722  0.000000  0.033711      4.000000
  0.100083  0.000000  0.033711      2.000000
  0.000000  0.029635  0.033711      4.000000
  0.033361  0.029635  0.033711      4.000000
  0.066722  0.029635  0.033711      4.000000
  0.100083  0.029635  0.033711      4.000000
 -0.066722  0.029635  0.033711      4.000000
 -0.033361  0.029635  0.033711      4.000000
  0.000000  0.059270  0.033711      4.000000
  0.033361  0.059270  0.033711      4.000000
  0.066722  0.059270  0.033711      4.000000
  0.100083  0.059270  0.033711      4.000000
 -0.066722  0.059270  0.033711      4.000000
 -0.033361  0.059270  0.033711      4.000000
  0.000000  0.088906  0.033711      2.000000
  0.033361  0.088906  0.033711      4.000000
  0.066722  0.088906  0.033711      4.000000
  0.100083  0.088906  0.033711      2.000000
 
 TETIRR: Found    544 inequivalent tetrahedra from      648


--------------------------------------------------------------------------------------------------------




 Dimension of arrays:
   k-points           NKPTS =     36   k-points in BZ     NKDIM =     36   number of bands    NBANDS=    208
   number of dos      NEDOS =    301   number of ions     NIONS =     16
   non local maximal  LDIM  =      6   non local SUM 2l+1 LMDIM =     18
   total plane-waves  NPLWV = 216000
   max r-space proj   IRMAX =      1   max aug-charges    IRDMAX=  24692
   dimension x,y,z NGX =    48 NGY =   50 NGZ =   90
   dimension x,y,z NGXF=    96 NGYF=  100 NGZF=  180
   support grid    NGXF=    96 NGYF=  100 NGZF=  180
   ions per type =               8   4   4
   NGX,Y,Z   is equivalent  to a cutoff of  15.97, 14.78, 15.13 a.u.
   NGXF,Y,Z  is equivalent  to a cutoff of  31.95, 29.56, 30.26 a.u.

 SYSTEM =  CuFeS2                                  
 POSCAR =  sm_isp_SD0310437-standardized_unitcell  

 Startparameter for this run:
   NWRITE =      2    write-flag & timer
   PREC   = accura    normal or accurate (medium, high low for compatibility)
   ISTART =      1    job   : 0-new  1-cont  2-samecut
   ICHARG =      1    charge: 1-file 2-atom 10-const
   ISPIN  =      1    spin polarized calculation?
   LNONCOLLINEAR =      T non collinear calculations
   LSORBIT =      F    spin-orbit coupling
   INIWAV =      1    electr: 0-lowe 1-rand  2-diag
   LASPH  =      T    aspherical Exc in radial PAW
   METAGGA=      F    non-selfconsistent MetaGGA calc.

 Electronic Relaxation 1
   ENCUT  =  700.0 eV  51.45 Ry    7.17 a.u.  10.78 12.13 21.33*2*pi/ulx,y,z
   ENINI  =  700.0     initial cutoff
   ENAUG  =  758.2 eV  augmentation charge cutoff
   NELM   =    200;   NELMIN=  2; NELMDL=  0     # of ELM steps 
   EDIFF  = 0.1E-07   stopping-criterion for ELM
   LREAL  =      F    real-space projection
   NLSPLINE    = F    spline interpolate recip. space projectors
   LCOMPAT=      F    compatible to vasp.4.4
   GGA_COMPAT  = T    GGA compatible to vasp.4.4-vasp.4.6
   LMAXPAW     = -100 max onsite density
   LMAXMIX     =    4 max onsite mixed and CHGCAR
   VOSKOWN=      0    Vosko Wilk Nusair interpolation
   ROPT   =    0.00000   0.00000   0.00000
 Ionic relaxation
   EDIFFG = -.1E-04   stopping-criterion for IOM
   NSW    =      0    number of steps for IOM
   NBLOCK =      1;   KBLOCK =      1    inner block; outer block 
   IBRION =     -1    ionic relax: 0-MD 1-quasi-New 2-CG
   NFREE  =      0    steps in history (QN), initial steepest desc. (CG)
   ISIF   =      2    stress and relaxation
   IWAVPR =     10    prediction:  0-non 1-charg 2-wave 3-comb
   ISYM   =      1    0-nonsym 1-usesym 2-fastsym
   LCORR  =      T    Harris-Foulkes like correction to forces

   POTIM  = 0.1000    time-step for ionic-motion
   TEIN   =    0.0    initial temperature
   TEBEG  =    0.0;   TEEND  =   0.0 temperature during run
   SMASS  =  -3.00    Nose mass-parameter (am)
   estimated Nose-frequenzy (Omega)   =  0.10E-29 period in steps =****** mass=  -0.570E-27a.u.
   SCALEE = 1.0000    scale energy and forces
   NPACO  =    256;   APACO  = 16.0  distance and # of slots for P.C.
   PSTRESS=    0.0 pullay stress

  Mass of Ions in am
   POMASS =  32.07 63.55 55.85
  Ionic Valenz
   ZVAL   =   6.00 17.00 14.00
  Atomic Wigner-Seitz radii
   RWIGS  =  -1.00 -1.00 -1.00
  virtual crystal weights 
   VCA    =   1.00  1.00  1.00
   NELECT =     172.0000    total number of electrons
   NUPDOWN=      -1.0000    fix difference up-down

 DOS related values:
   EMIN   =  10.00;   EMAX   =-10.00  energy-range for DOS
   EFERMI =   0.00
   ISMEAR =    -5;   SIGMA  =   0.03  broadening in eV -4-tet -1-fermi 0-gaus

 Electronic relaxation 2 (details)
   IALGO  =     58    algorithm
   LDIAG  =      T    sub-space diagonalisation (order eigenvalues)
   LSUBROT=      F    optimize rotation matrix (better conditioning)
   TURBO    =      0    0=normal 1=particle mesh
   IRESTART =      0    0=no restart 2=restart with 2 vectors
   NREBOOT  =      0    no. of reboots
   NMIN     =      0    reboot dimension
   EREF     =   0.00    reference energy to select bands
   IMIX   =      4    mixing-type and parameters
     AMIX     =   0.40;   BMIX     =  1.00
     AMIX_MAG =   1.60;   BMIX_MAG =  1.00
     AMIN     =   0.10
     WC   =   100.;   INIMIX=   1;  MIXPRE=   1;  MAXMIX= -45

 Intra band minimization:
   WEIMIN = 0.0000     energy-eigenvalue tresh-hold
   EBREAK =  0.12E-10  absolut break condition
   DEPER  =   0.30     relativ break condition  

   TIME   =   0.40     timestep for ELM

  volume/ion in A,a.u.               =      17.36       117.17
  Fermi-wavevector in a.u.,A,eV,Ry     =   1.395295  2.636726 26.488488  1.946849
  Thomas-Fermi vector in A             =   2.518761
 
 Write flags
   LWAVE        =      T    write WAVECAR
   LDOWNSAMPLE  =      F    k-point downsampling of WAVECAR
   LCHARG       =      T    write CHGCAR
   LVTOT        =      F    write LOCPOT, total local potential
   LVHAR        =      F    write LOCPOT, Hartree potential only
   LELF         =      F    write electronic localiz. function (ELF)
   LORBIT       =     11    0 simple, 1 ext, 2 COOP (PROOUT), +10 PAW based schemes


 Dipole corrections
   LMONO  =      F    monopole corrections only (constant potential shift)
   LDIPOL =      F    correct potential (dipole corrections)
   IDIPOL =      0    1-x, 2-y, 3-z, 4-all directions 
   EPSILON=  1.0000000 bulk dielectric constant

 LDA+U is selected, type is set to LDAUTYPE =  2
   angular momentum for each species LDAUL =     2    2    2
   U (eV)           for each species LDAUU =   0.0  0.1  4.7
   J (eV)           for each species LDAUJ =   0.0  0.0  0.0
 Exchange correlation treatment:
   GGA     =    PS    GGA type
   LEXCH   =    14    internal setting for exchange type
   VOSKOWN=      0    Vosko Wilk Nusair interpolation
   LHFCALC =     F    Hartree Fock is set to
   LHFONE  =     F    Hartree Fock one center treatment
   AEXX    =    0.0000 exact exchange contribution

 Linear response parameters
   LEPSILON=     F    determine dielectric tensor
   LRPA    =     F    only Hartree local field effects (RPA)
   LNABLA  =     F    use nabla operator in PAW spheres
   LVEL    =     F    velocity operator in full k-point grid
   LINTERFAST=   F  fast interpolation
   KINTER  =     0    interpolate to denser k-point grid
   CSHIFT  =0.1000    complex shift for real part using Kramers Kronig
   OMEGAMAX=  -1.0    maximum frequency
   DEG_THRESHOLD= 0.2000000E-02 threshold for treating states as degnerate
   RTIME   =   -0.100 relaxation time in fs
  (WPLASMAI=    0.000 imaginary part of plasma frequency in eV, 0.658/RTIME)
   DFIELD  = 0.0000000 0.0000000 0.0000000 field for delta impulse in time
 
 Orbital magnetization related:
   ORBITALMAG=     F  switch on orbital magnetization
   LCHIMAG   =     F  perturbation theory with respect to B field
   DQ        =  0.001000  dq finite difference perturbation B field
   LLRAUG    =     F  two centre corrections for induced B field



--------------------------------------------------------------------------------------------------------


 Static calculation
 charge density and potential will be updated during run
 non collinear spin polarized calculation
 Conjugate gradient for all bands (Freysoldt, et al. PRB 79, 241103 (2009))
 preconditioned conjugated gradient                                        
 perform sub-space diagonalisation
    before iterative eigenvector-optimisation
 modified Broyden-mixing scheme, WC =      100.0
 initial mixing is a Kerker type mixing with AMIX =  0.4000 and BMIX =      1.0000
 Hartree-type preconditioning will be used
 using additional bands          122
 reciprocal scheme for non local part
 use partial core corrections
 no Harris-corrections to forces 
 use gradient corrections 
 use of overlap-Matrix (Vanderbilt PP)
 Fermi weights with tetrahedron method with Bloechl corrections


--------------------------------------------------------------------------------------------------------


  energy-cutoff  :      700.00
  volume of cell :      277.81
      direct lattice vectors                 reciprocal lattice vectors
     4.995846373  0.000000000  0.000000000     0.200166283  0.000000000  0.000000000
     0.000000000  5.623939237  0.000000000     0.000000000  0.177811309  0.000000000
     0.000000000  0.000000000  9.887918007     0.000000000  0.000000000  0.101133525

  length of vectors
     4.995846373  5.623939237  9.887918007     0.200166283  0.177811309  0.101133525


 
 old parameters found on file WAVECAR:
  energy-cutoff  :      700.00
  volume of cell :      277.81
      direct lattice vectors                 reciprocal lattice vectors
     4.995846373  0.000000000  0.000000000     0.200166283  0.000000000  0.000000000
     0.000000000  5.623793432  0.000000000     0.000000000  0.177815919  0.000000000
     0.000000000  0.000000000  9.887918007     0.000000000  0.000000000  0.101133525

  length of vectors

 
 k-points in units of 2pi/SCALE and weight: Automatic mesh                          
   0.00000000  0.00000000  0.00000000       0.009
   0.03336105  0.00000000  0.00000000       0.019
   0.06672209  0.00000000  0.00000000       0.019
   0.10008314  0.00000000  0.00000000       0.009
   0.00000000  0.02963522  0.00000000       0.019
   0.03336105  0.02963522  0.00000000       0.037
   0.06672209  0.02963522  0.00000000       0.037
   0.10008314  0.02963522  0.00000000       0.019
   0.00000000  0.05927044  0.00000000       0.019
   0.03336105  0.05927044  0.00000000       0.037
   0.06672209  0.05927044  0.00000000       0.037
   0.10008314  0.05927044  0.00000000       0.019
   0.00000000  0.08890565  0.00000000       0.009
   0.03336105  0.08890565  0.00000000       0.019
   0.06672209  0.08890565  0.00000000       0.019
   0.10008314  0.08890565  0.00000000       0.009
   0.00000000  0.00000000  0.03371117       0.019
   0.03336105  0.00000000  0.03371117       0.037
   0.06672209  0.00000000  0.03371117       0.037
   0.10008314  0.00000000  0.03371117       0.019
   0.00000000  0.02963522  0.03371117       0.037
   0.03336105  0.02963522  0.03371117       0.037
   0.06672209  0.02963522  0.03371117       0.037
   0.10008314  0.02963522  0.03371117       0.037
  -0.06672209  0.02963522  0.03371117       0.037
  -0.03336105  0.02963522  0.03371117       0.037
   0.00000000  0.05927044  0.03371117       0.037
   0.03336105  0.05927044  0.03371117       0.037
   0.06672209  0.05927044  0.03371117       0.037
   0.10008314  0.05927044  0.03371117       0.037
  -0.06672209  0.05927044  0.03371117       0.037
  -0.03336105  0.05927044  0.03371117       0.037
   0.00000000  0.08890565  0.03371117       0.019
   0.03336105  0.08890565  0.03371117       0.037
   0.06672209  0.08890565  0.03371117       0.037
   0.10008314  0.08890565  0.03371117       0.019
 
 k-points in reciprocal lattice and weights: Automatic mesh                          
   0.00000000  0.00000000  0.00000000       0.009
   0.16666667  0.00000000  0.00000000       0.019
   0.33333333  0.00000000  0.00000000       0.019
   0.50000000  0.00000000  0.00000000       0.009
   0.00000000  0.16666667  0.00000000       0.019
   0.16666667  0.16666667  0.00000000       0.037
   0.33333333  0.16666667  0.00000000       0.037
   0.50000000  0.16666667  0.00000000       0.019
   0.00000000  0.33333333  0.00000000       0.019
   0.16666667  0.33333333  0.00000000       0.037
   0.33333333  0.33333333  0.00000000       0.037
   0.50000000  0.33333333  0.00000000       0.019
   0.00000000  0.50000000  0.00000000       0.009
   0.16666667  0.50000000  0.00000000       0.019
   0.33333333  0.50000000  0.00000000       0.019
   0.50000000  0.50000000  0.00000000       0.009
   0.00000000  0.00000000  0.33333333       0.019
   0.16666667  0.00000000  0.33333333       0.037
   0.33333333  0.00000000  0.33333333       0.037
   0.50000000  0.00000000  0.33333333       0.019
   0.00000000  0.16666667  0.33333333       0.037
   0.16666667  0.16666667  0.33333333       0.037
   0.33333333  0.16666667  0.33333333       0.037
   0.50000000  0.16666667  0.33333333       0.037
  -0.33333333  0.16666667  0.33333333       0.037
  -0.16666667  0.16666667  0.33333333       0.037
   0.00000000  0.33333333  0.33333333       0.037
   0.16666667  0.33333333  0.33333333       0.037
   0.33333333  0.33333333  0.33333333       0.037
   0.50000000  0.33333333  0.33333333       0.037
  -0.33333333  0.33333333  0.33333333       0.037
  -0.16666667  0.33333333  0.33333333       0.037
   0.00000000  0.50000000  0.33333333       0.019
   0.16666667  0.50000000  0.33333333       0.037
   0.33333333  0.50000000  0.33333333       0.037
   0.50000000  0.50000000  0.33333333       0.019
 
 position of ions in fractional coordinates (direct lattice) 
   0.25165399  0.25000000  0.12500000
   0.74834604  0.75000000  0.12500000
   0.25000000  0.74698141  0.87500000
   0.75000000  0.25301862  0.87500000
   0.24834601  0.25000000  0.62500000
   0.75165396  0.75000000  0.62500000
   0.75000000  0.24698138  0.37500000
   0.25000000  0.75301859  0.37500000
   0.00000000  0.00000000  0.50121615
   0.50000000  0.00000000  0.24878385
   0.50000000  0.50000000  0.00121615
   0.00000000  0.50000000  0.74878385
   0.00000000  0.00000000  0.99984884
   0.50000000  0.00000000  0.75015116
   0.50000000  0.50000000  0.49984884
   0.00000000  0.50000000  0.25015116
 
 position of ions in cartesian coordinates  (Angst):
   1.25722465  1.40598481  1.23598975
   3.73862187  4.21795443  1.23598975
   1.24896159  4.20097806  8.65192826
   3.74688478  1.42296134  8.65192826
   1.24069853  1.40598481  6.17994875
   3.75514769  4.21795443  6.17994875
   3.74688478  1.38900828  3.70796925
   1.24896159  4.23493079  3.70796925
   0.00000000  0.00000000  4.95598424
   2.49792319  0.00000000  2.45995426
   2.49792319  2.81196962  0.01202524
   0.00000000  2.81196962  7.40391326
   0.00000000  0.00000000  9.88642336
   2.49792319  0.00000000  7.41743315
   2.49792319  2.81196962  4.94246436
   0.00000000  2.81196962  2.47347415
 
 Euler angles ALPHA=     0.0000000  BETA=     0.0000000

 transformation matrix from SAXIS to cartesian coordinates
 ---------------------------------------------------------
     1.0000000 m_x     0.0000000 m_y     0.0000000 m_z
     0.0000000 m_x     1.0000000 m_y     0.0000000 m_z
     0.0000000 m_x     0.0000000 m_y     1.0000000 m_z

 transformation matrix from cartesian coordinates to SAXIS
 ---------------------------------------------------------
     1.0000000 m_x     0.0000000 m_y     0.0000000 m_z
     0.0000000 m_x     1.0000000 m_y     0.0000000 m_z
     0.0000000 m_x     0.0000000 m_y     1.0000000 m_z




--------------------------------------------------------------------------------------------------------


 k-point  1 :   0.0000 0.0000 0.0000  plane waves:   23374
 k-point  2 :   0.1667 0.0000 0.0000  plane waves:   23310
 k-point  3 :   0.3333 0.0000 0.0000  plane waves:   23404
 k-point  4 :   0.5000 0.0000 0.0000  plane waves:   23452
 k-point  5 :   0.0000 0.1667 0.0000  plane waves:   23352
 k-point  6 :   0.1667 0.1667 0.0000  plane waves:   23366
 k-point  7 :   0.3333 0.1667 0.0000  plane waves:   23410
 k-point  8 :   0.5000 0.1667 0.0000  plane waves:   23400
 k-point  9 :   0.0000 0.3333 0.0000  plane waves:   23356
 k-point 10 :   0.1667 0.3333 0.0000  plane waves:   23362
 k-point 11 :   0.3333 0.3333 0.0000  plane waves:   23366
 k-point 12 :   0.5000 0.3333 0.0000  plane waves:   23388
 k-point 13 :   0.0000 0.5000 0.0000  plane waves:   23384
 k-point 14 :   0.1667 0.5000 0.0000  plane waves:   23376
 k-point 15 :   0.3333 0.5000 0.0000  plane waves:   23420
 k-point 16 :   0.5000 0.5000 0.0000  plane waves:   23368
 k-point 17 :   0.0000 0.0000 0.3333  plane waves:   23372
 k-point 18 :   0.1667 0.0000 0.3333  plane waves:   23346
 k-point 19 :   0.3333 0.0000 0.3333  plane waves:   23336
 k-point 20 :   0.5000 0.0000 0.3333  plane waves:   23320
 k-point 21 :   0.0000 0.1667 0.3333  plane waves:   23334
 k-point 22 :   0.1667 0.1667 0.3333  plane waves:   23358
 k-point 23 :   0.3333 0.1667 0.3333  plane waves:   23336
 k-point 24 :   0.5000 0.1667 0.3333  plane waves:   23356
 k-point 25 :  -0.3333 0.1667 0.3333  plane waves:   23336
 k-point 26 :  -0.1667 0.1667 0.3333  plane waves:   23358
 k-point 27 :   0.0000 0.3333 0.3333  plane waves:   23384
 k-point 28 :   0.1667 0.3333 0.3333  plane waves:   23362
 k-point 29 :   0.3333 0.3333 0.3333  plane waves:   23384
 k-point 30 :   0.5000 0.3333 0.3333  plane waves:   23408
 k-point 31 :  -0.3333 0.3333 0.3333  plane waves:   23384
 k-point 32 :  -0.1667 0.3333 0.3333  plane waves:   23362
 k-point 33 :   0.0000 0.5000 0.3333  plane waves:   23380
 k-point 34 :   0.1667 0.5000 0.3333  plane waves:   23396
 k-point 35 :   0.3333 0.5000 0.3333  plane waves:   23372
 k-point 36 :   0.5000 0.5000 0.3333  plane waves:   23368

 maximum and minimum number of plane-waves per node :       780      692

 maximum number of plane-waves:     23452
 maximum index in each direction: 
   IXMAX=   11   IYMAX=   12   IZMAX=   21
   IXMIN=  -11   IYMIN=  -12   IZMIN=  -21


 parallel 3D FFT for wavefunctions:
    minimum data exchange during FFTs selected (reduces bandwidth)
 parallel 3D FFT for charge:
    minimum data exchange during FFTs selected (reduces bandwidth)


 total amount of memory used by VASP MPI-rank0    79974. kBytes
=======================================================================

   base      :      30000. kBytes
   nonl-proj :       6070. kBytes
   fftplans  :       1422. kBytes
   grid      :       5760. kBytes
   one-center:         62. kBytes
   wavefun   :      36660. kBytes
 
     INWAV:  cpu time    7.3125: real time    7.3865
 Broyden mixing: mesh for mixing (old mesh)
   NGX = 21   NGY = 25   NGZ = 43
  (NGX  = 96   NGY  =100   NGZ  =180)
  gives a total of  22575 points

 initial charge density was supplied:
 number of electron     171.9999953 magnetization       0.0000000     -0.0000000     -0.0000000
 charge density for first step will be calculated from the start-wavefunctions


--------------------------------------------------------------------------------------------------------


 BZINTS: Fermi energy:  5.254180;172.000000 electrons
         Band energy:***********;  BLOECHL correction:  0.000000
 Maximum index for augmentation-charges          917 (set IRDMAX)


--------------------------------------------------------------------------------------------------------


 initial charge from wavefunction
 First call to EWALD:  gamma=   0.272
 Maximum number of real-space cells 3x 3x 2
 Maximum number of reciprocal cells 2x 2x 4

    FEWALD:  cpu time    0.0224: real time    0.0224

 ----------------------------------------------------------------------------- 
|                                                                             |
|           W    W    AA    RRRRR   N    N  II  N    N   GGGG   !!!           |
|           W    W   A  A   R    R  NN   N  II  NN   N  G    G  !!!           |
|           W    W  A    A  R    R  N N  N  II  N N  N  G       !!!           |
|           W WW W  AAAAAA  RRRRR   N  N N  II  N  N N  G  GGG   !            |
|           WW  WW  A    A  R   R   N   NN  II  N   NN  G    G                |
|           W    W  A    A  R    R  N    N  II  N    N   GGGG   !!!           |
|                                                                             |
|      ALGO=A and IALGO=5X tend to fail with the tetrahedron method           |
|      (e.g. Bloechls method ISMEAR=-5 is not variational)                    |
|      please switch to IMSEAR=0-n, except for DOS calculations               |
|      For DOS calculations use IALGO=53 after preconverging with ISMEAR>=0   |
|          I HOPE YOU KNOW, WHAT YOU ARE  DOING                               |
|                                                                             |
 ----------------------------------------------------------------------------- 



--------------------------------------- Iteration      1(   1)  ---------------------------------------


    POTLOK:  cpu time    0.1760: real time    0.1769
    SETDIJ:  cpu time    0.5885: real time    0.5905
    TRIAL :  cpu time    4.4652: real time    4.4964
 BZINTS: Fermi energy:  5.254179;172.000000 electrons
         Band energy:***********;  BLOECHL correction:  0.000000
 BZINTS: Fermi energy:  5.254180;172.000000 electrons
         Band energy:***********;  BLOECHL correction:  0.000000
    CORREC:  cpu time    3.9320: real time    3.9508
    CHARGE:  cpu time    1.1071: real time    1.1126
    --------------------------------------------
      LOOP:  cpu time   10.2811: real time   10.4108

 eigenvalue-minimisations  :     0
 total energy-change (2. order) :-0.8170220E+02  (-0.1868015E-06)
 number of electron     171.9999953 magnetization       0.0000000      0.0000000      0.0000000
 augmentation part       70.5460995 magnetization      -0.0000000     -0.0000001     -0.0006846

 Free energy of the ion-electron system (eV)
  ---------------------------------------------------
  alpha Z        PSCENC =       609.92874288
  Ewald energy   TEWEN  =    -15821.72266014
  -Hartree energ DENC   =    -10609.02141196
  -exchange      EXHF   =         0.00000000
  -V(xc)+E(xc)   XCENC  =       822.64086725
  PAW double counting   =     28343.87205280   -29267.90957402
  entropy T*S    EENTRO =         0.00000000
  eigenvalues    EBANDS =     -2664.50649009
  atomic energy  EATOM  =     28505.01627691
  ---------------------------------------------------
  free energy    TOTEN  =       -81.70219637 eV

  energy without entropy =      -81.70219637  energy(sigma->0) =      -81.70219637


--------------------------------------------------------------------------------------------------------




--------------------------------------- Iteration      1(   2)  ---------------------------------------


    POTLOK:  cpu time    0.0981: real time    0.0986
    SETDIJ:  cpu time    0.5876: real time    0.5894
    TRIAL :  cpu time    4.3888: real time    4.4145
 BZINTS: Fermi energy:  5.254178;172.000000 electrons
         Band energy:***********;  BLOECHL correction:  0.000000
 BZINTS: Fermi energy:  5.254179;172.000000 electrons
         Band energy:***********;  BLOECHL correction:  0.000000
    CORREC:  cpu time    3.9251: real time    3.9439
    CHARGE:  cpu time    1.1293: real time    1.1351
    --------------------------------------------
      LOOP:  cpu time   10.1467: real time   10.2022

 eigenvalue-minimisations  :     0
 total energy-change (2. order) :-0.1895078E-05  (-0.4416456E-06)
 number of electron     171.9999953 magnetization       0.0000000      0.0000000      0.0000000
 augmentation part       70.5460995 magnetization      -0.0000000     -0.0000001     -0.0006846

 Free energy of the ion-electron system (eV)
  ---------------------------------------------------
  alpha Z        PSCENC =       609.92874288
  Ewald energy   TEWEN  =    -15821.72266014
  -Hartree energ DENC   =    -10609.02141070
  -exchange      EXHF   =         0.00000000
  -V(xc)+E(xc)   XCENC  =       822.64086374
  PAW double counting   =     28343.87207383   -29267.90959529
  entropy T*S    EENTRO =         0.00000000
  eigenvalues    EBANDS =     -2664.50648950
  atomic energy  EATOM  =     28505.01627691
  ---------------------------------------------------
  free energy    TOTEN  =       -81.70219826 eV

  energy without entropy =      -81.70219826  energy(sigma->0) =      -81.70219826


--------------------------------------------------------------------------------------------------------




--------------------------------------- Iteration      1(   3)  ---------------------------------------


    POTLOK:  cpu time    0.0955: real time    0.0960
    SETDIJ:  cpu time    0.5873: real time    0.5892
    TRIAL :  cpu time    4.3723: real time    4.3983
 BZINTS: Fermi energy:  5.254179;172.000000 electrons
         Band energy:***********;  BLOECHL correction:  0.000000
 BZINTS: Fermi energy:  5.254179;172.000000 electrons
         Band energy:***********;  BLOECHL correction:  0.000000
    CORREC:  cpu time    3.9200: real time    3.9388
    CHARGE:  cpu time    1.1082: real time    1.1138
    --------------------------------------------
      LOOP:  cpu time   10.1018: real time   10.1560

 eigenvalue-minimisations  :     0
 total energy-change (2. order) :-0.5856637E-06  (-0.1466465E-06)
 number of electron     171.9999953 magnetization       0.0000000      0.0000000      0.0000000
 augmentation part       70.5460995 magnetization      -0.0000000     -0.0000000     -0.0006846

 Free energy of the ion-electron system (eV)
  ---------------------------------------------------
  alpha Z        PSCENC =       609.92874288
  Ewald energy   TEWEN  =    -15821.72266014
  -Hartree energ DENC   =    -10609.02140853
  -exchange      EXHF   =         0.00000000
  -V(xc)+E(xc)   XCENC  =       822.64086414
  PAW double counting   =     28343.87211938   -29267.90964143
  entropy T*S    EENTRO =         0.00000000
  eigenvalues    EBANDS =     -2664.50649205
  atomic energy  EATOM  =     28505.01627691
  ---------------------------------------------------
  free energy    TOTEN  =       -81.70219885 eV

  energy without entropy =      -81.70219885  energy(sigma->0) =      -81.70219885


--------------------------------------------------------------------------------------------------------




--------------------------------------- Iteration      1(   4)  ---------------------------------------


    POTLOK:  cpu time    0.0950: real time    0.0955
    SETDIJ:  cpu time    0.5874: real time    0.5891
    TRIAL :  cpu time    4.4283: real time    4.4536
 BZINTS: Fermi energy:  5.254179;172.000000 electrons
         Band energy:***********;  BLOECHL correction:  0.000000
 BZINTS: Fermi energy:  5.254179;172.000000 electrons
         Band energy:***********;  BLOECHL correction:  0.000000
    CORREC:  cpu time    3.9029: real time    3.9217
    CHARGE:  cpu time    1.1028: real time    1.1082
    --------------------------------------------
      LOOP:  cpu time   10.1323: real time   10.1857

 eigenvalue-minimisations  :     0
 total energy-change (2. order) :-0.6499249E-06  (-0.1332648E-06)
 number of electron     171.9999953 magnetization       0.0000000      0.0000000      0.0000000
 augmentation part       70.5460995 magnetization      -0.0000000     -0.0000001     -0.0006846

 Free energy of the ion-electron system (eV)
  ---------------------------------------------------
  alpha Z        PSCENC =       609.92874288
  Ewald energy   TEWEN  =    -15821.72266014
  -Hartree energ DENC   =    -10609.02140805
  -exchange      EXHF   =         0.00000000
  -V(xc)+E(xc)   XCENC  =       822.64086328
  PAW double counting   =     28343.87213795   -29267.90966010
  entropy T*S    EENTRO =         0.00000000
  eigenvalues    EBANDS =     -2664.50649222
  atomic energy  EATOM  =     28505.01627691
  ---------------------------------------------------
  free energy    TOTEN  =       -81.70219950 eV

  energy without entropy =      -81.70219950  energy(sigma->0) =      -81.70219950


--------------------------------------------------------------------------------------------------------




--------------------------------------- Iteration      1(   5)  ---------------------------------------


    POTLOK:  cpu time    0.0959: real time    0.0964
    SETDIJ:  cpu time    0.5873: real time    0.5891
    TRIAL :  cpu time    4.4276: real time    4.4536
 BZINTS: Fermi energy:  5.254179;172.000000 electrons
         Band energy:***********;  BLOECHL correction:  0.000000
 BZINTS: Fermi energy:  5.254179;172.000000 electrons
         Band energy:***********;  BLOECHL correction:  0.000000
    CORREC:  cpu time    4.0013: real time    4.0204
    CHARGE:  cpu time    1.1099: real time    1.1154
    --------------------------------------------
      LOOP:  cpu time   10.2363: real time   10.2925

 eigenvalue-minimisations  :     0
 total energy-change (2. order) :-0.2484776E-06  (-0.9647947E-07)
 number of electron     171.9999953 magnetization       0.0000000      0.0000000      0.0000000
 augmentation part       70.5460995 magnetization      -0.0000000     -0.0000000     -0.0006846

 Free energy of the ion-electron system (eV)
  ---------------------------------------------------
  alpha Z        PSCENC =       609.92874288
  Ewald energy   TEWEN  =    -15821.72266014
  -Hartree energ DENC   =    -10609.02140791
  -exchange      EXHF   =         0.00000000
  -V(xc)+E(xc)   XCENC  =       822.64086328
  PAW double counting   =     28343.87215968   -29267.90968193
  entropy T*S    EENTRO =         0.00000000
  eigenvalues    EBANDS =     -2664.50649251
  atomic energy  EATOM  =     28505.01627691
  ---------------------------------------------------
  free energy    TOTEN  =       -81.70219974 eV

  energy without entropy =      -81.70219974  energy(sigma->0) =      -81.70219974


--------------------------------------------------------------------------------------------------------




--------------------------------------- Iteration      1(   6)  ---------------------------------------


    POTLOK:  cpu time    0.0950: real time    0.0955
    SETDIJ:  cpu time    0.5871: real time    0.5890
    TRIAL :  cpu time    4.3714: real time    4.3972
 BZINTS: Fermi energy:  5.254179;172.000000 electrons
         Band energy:***********;  BLOECHL correction:  0.000000
 BZINTS: Fermi energy:  5.254179;172.000000 electrons
         Band energy:***********;  BLOECHL correction:  0.000000
    CORREC:  cpu time    3.9236: real time    3.9424
    CHARGE:  cpu time    1.1196: real time    1.1252
    --------------------------------------------
      LOOP:  cpu time   10.1132: real time   10.1694

 eigenvalue-minimisations  :     0
 total energy-change (2. order) :-0.4423237E-06  (-0.6093829E-07)
 number of electron     171.9999953 magnetization       0.0000000      0.0000000      0.0000000
 augmentation part       70.5460995 magnetization      -0.0000000     -0.0000001     -0.0006846

 Free energy of the ion-electron system (eV)
  ---------------------------------------------------
  alpha Z        PSCENC =       609.92874288
  Ewald energy   TEWEN  =    -15821.72266014
  -Hartree energ DENC   =    -10609.02140785
  -exchange      EXHF   =         0.00000000
  -V(xc)+E(xc)   XCENC  =       822.64086271
  PAW double counting   =     28343.87217827   -29267.90970057
  entropy T*S    EENTRO =         0.00000000
  eigenvalues    EBANDS =     -2664.50649239
  atomic energy  EATOM  =     28505.01627691
  ---------------------------------------------------
  free energy    TOTEN  =       -81.70220019 eV

  energy without entropy =      -81.70220019  energy(sigma->0) =      -81.70220019


--------------------------------------------------------------------------------------------------------




--------------------------------------- Iteration      1(   7)  ---------------------------------------


    POTLOK:  cpu time    0.0946: real time    0.0951
    SETDIJ:  cpu time    0.5871: real time    0.5890
    TRIAL :  cpu time    4.3773: real time    4.4027
 BZINTS: Fermi energy:  5.254179;172.000000 electrons
         Band energy:***********;  BLOECHL correction:  0.000000
 BZINTS: Fermi energy:  5.254179;172.000000 electrons
         Band energy:***********;  BLOECHL correction:  0.000000
    CORREC:  cpu time    3.9120: real time    3.9310
    CHARGE:  cpu time    1.1270: real time    1.1327
    --------------------------------------------
      LOOP:  cpu time   10.1139: real time   10.1678

 eigenvalue-minimisations  :     0
 total energy-change (2. order) :-0.2495944E-06  (-0.6389711E-07)
 number of electron     171.9999953 magnetization       0.0000000      0.0000000      0.0000000
 augmentation part       70.5460995 magnetization      -0.0000000     -0.0000000     -0.0006846

 Free energy of the ion-electron system (eV)
  ---------------------------------------------------
  alpha Z        PSCENC =       609.92874288
  Ewald energy   TEWEN  =    -15821.72266014
  -Hartree energ DENC   =    -10609.02140787
  -exchange      EXHF   =         0.00000000
  -V(xc)+E(xc)   XCENC  =       822.64086239
  PAW double counting   =     28343.87219160   -29267.90971392
  entropy T*S    EENTRO =         0.00000000
  eigenvalues    EBANDS =     -2664.50649227
  atomic energy  EATOM  =     28505.01627691
  ---------------------------------------------------
  free energy    TOTEN  =       -81.70220044 eV

  energy without entropy =      -81.70220044  energy(sigma->0) =      -81.70220044


--------------------------------------------------------------------------------------------------------




--------------------------------------- Iteration      1(   8)  ---------------------------------------


    POTLOK:  cpu time    0.0943: real time    0.0948
    SETDIJ:  cpu time    0.5875: real time    0.5893
    TRIAL :  cpu time    4.4082: real time    4.4339
 BZINTS: Fermi energy:  5.254179;172.000000 electrons
         Band energy:***********;  BLOECHL correction:  0.000000
 BZINTS: Fermi energy:  5.254179;172.000000 electrons
         Band energy:***********;  BLOECHL correction:  0.000000
    CORREC:  cpu time    3.9019: real time    3.9206
    CHARGE:  cpu time    1.1045: real time    1.1099
    --------------------------------------------
      LOOP:  cpu time   10.1278: real time   10.1803

 eigenvalue-minimisations  :     0
 total energy-change (2. order) :-0.1403059E-06  (-0.4161544E-07)
 number of electron     171.9999953 magnetization       0.0000000      0.0000000      0.0000000
 augmentation part       70.5460995 magnetization      -0.0000000     -0.0000001     -0.0006846

 Free energy of the ion-electron system (eV)
  ---------------------------------------------------
  alpha Z        PSCENC =       609.92874288
  Ewald energy   TEWEN  =    -15821.72266014
  -Hartree energ DENC   =    -10609.02140799
  -exchange      EXHF   =         0.00000000
  -V(xc)+E(xc)   XCENC  =       822.64086235
  PAW double counting   =     28343.87220413   -29267.90972649
  entropy T*S    EENTRO =         0.00000000
  eigenvalues    EBANDS =     -2664.50649223
  atomic energy  EATOM  =     28505.01627691
  ---------------------------------------------------
  free energy    TOTEN  =       -81.70220058 eV

  energy without entropy =      -81.70220058  energy(sigma->0) =      -81.70220058


--------------------------------------------------------------------------------------------------------




--------------------------------------- Iteration      1(   9)  ---------------------------------------


    POTLOK:  cpu time    0.0944: real time    0.0950
    SETDIJ:  cpu time    0.5874: real time    0.5891
    TRIAL :  cpu time    4.4708: real time    4.4972
 BZINTS: Fermi energy:  5.254179;172.000000 electrons
         Band energy:***********;  BLOECHL correction:  0.000000
 BZINTS: Fermi energy:  5.254179;172.000000 electrons
         Band energy:***********;  BLOECHL correction:  0.000000
    CORREC:  cpu time    3.9141: real time    3.9326
    CHARGE:  cpu time    1.1100: real time    1.1155
    --------------------------------------------
      LOOP:  cpu time   10.1972: real time   10.2503

 eigenvalue-minimisations  :     0
 total energy-change (2. order) :-0.1298613E-06  (-0.4364246E-07)
 number of electron     171.9999953 magnetization       0.0000000      0.0000000      0.0000000
 augmentation part       70.5460995 magnetization      -0.0000000     -0.0000000     -0.0006846

 Free energy of the ion-electron system (eV)
  ---------------------------------------------------
  alpha Z        PSCENC =       609.92874288
  Ewald energy   TEWEN  =    -15821.72266014
  -Hartree energ DENC   =    -10609.02140794
  -exchange      EXHF   =         0.00000000
  -V(xc)+E(xc)   XCENC  =       822.64086222
  PAW double counting   =     28343.87221361   -29267.90973596
  entropy T*S    EENTRO =         0.00000000
  eigenvalues    EBANDS =     -2664.50649229
  atomic energy  EATOM  =     28505.01627691
  ---------------------------------------------------
  free energy    TOTEN  =       -81.70220071 eV

  energy without entropy =      -81.70220071  energy(sigma->0) =      -81.70220071


--------------------------------------------------------------------------------------------------------




--------------------------------------- Iteration      1(  10)  ---------------------------------------


    POTLOK:  cpu time    0.0944: real time    0.0949
    SETDIJ:  cpu time    0.5869: real time    0.5887
    TRIAL :  cpu time    4.3345: real time    4.3600
 BZINTS: Fermi energy:  5.254179;172.000000 electrons
         Band energy:***********;  BLOECHL correction:  0.000000
 BZINTS: Fermi energy:  5.254179;172.000000 electrons
         Band energy:***********;  BLOECHL correction:  0.000000
    CORREC:  cpu time    3.9290: real time    3.9478
    CHARGE:  cpu time    1.1163: real time    1.1219
    --------------------------------------------
      LOOP:  cpu time   10.0762: real time   10.1315

 eigenvalue-minimisations  :     0
 total energy-change (2. order) :-0.1150875E-06  (-0.3092715E-07)
 number of electron     171.9999953 magnetization       0.0000000      0.0000000      0.0000000
 augmentation part       70.5460995 magnetization      -0.0000000     -0.0000001     -0.0006846

 Free energy of the ion-electron system (eV)
  ---------------------------------------------------
  alpha Z        PSCENC =       609.92874288
  Ewald energy   TEWEN  =    -15821.72266014
  -Hartree energ DENC   =    -10609.02140798
  -exchange      EXHF   =         0.00000000
  -V(xc)+E(xc)   XCENC  =       822.64086215
  PAW double counting   =     28343.87222451   -29267.90974686
  entropy T*S    EENTRO =         0.00000000
  eigenvalues    EBANDS =     -2664.50649229
  atomic energy  EATOM  =     28505.01627691
  ---------------------------------------------------
  free energy    TOTEN  =       -81.70220082 eV

  energy without entropy =      -81.70220082  energy(sigma->0) =      -81.70220082


--------------------------------------------------------------------------------------------------------




--------------------------------------- Iteration      1(  11)  ---------------------------------------


    POTLOK:  cpu time    0.0950: real time    0.0956
    SETDIJ:  cpu time    0.5870: real time    0.5890
    TRIAL :  cpu time    4.3720: real time    4.3976
 BZINTS: Fermi energy:  5.254179;172.000000 electrons
         Band energy:***********;  BLOECHL correction:  0.000000
 BZINTS: Fermi energy:  5.254179;172.000000 electrons
         Band energy:***********;  BLOECHL correction:  0.000000
    CORREC:  cpu time    3.8962: real time    3.9389
    CHARGE:  cpu time    1.1093: real time    1.1150
    --------------------------------------------
      LOOP:  cpu time   10.0725: real time   10.1732

 eigenvalue-minimisations  :     0
 total energy-change (2. order) :-0.7992276E-07  (-0.3197309E-07)
 number of electron     171.9999953 magnetization       0.0000000      0.0000000      0.0000000
 augmentation part       70.5460995 magnetization      -0.0000000     -0.0000000     -0.0006846

 Free energy of the ion-electron system (eV)
  ---------------------------------------------------
  alpha Z        PSCENC =       609.92874288
  Ewald energy   TEWEN  =    -15821.72266014
  -Hartree energ DENC   =    -10609.02140801
  -exchange      EXHF   =         0.00000000
  -V(xc)+E(xc)   XCENC  =       822.64086210
  PAW double counting   =     28343.87223271   -29267.90975506
  entropy T*S    EENTRO =         0.00000000
  eigenvalues    EBANDS =     -2664.50649229
  atomic energy  EATOM  =     28505.01627691
  ---------------------------------------------------
  free energy    TOTEN  =       -81.70220090 eV

  energy without entropy =      -81.70220090  energy(sigma->0) =      -81.70220090


--------------------------------------------------------------------------------------------------------




--------------------------------------- Iteration      1(  12)  ---------------------------------------


    POTLOK:  cpu time    0.0947: real time    0.0952
    SETDIJ:  cpu time    0.5879: real time    0.5897
    TRIAL :  cpu time    4.3974: real time    4.4231
 BZINTS: Fermi energy:  5.254179;172.000000 electrons
         Band energy:***********;  BLOECHL correction:  0.000000
 BZINTS: Fermi energy:  5.254179;172.000000 electrons
         Band energy:***********;  BLOECHL correction:  0.000000
    CORREC:  cpu time    3.8969: real time    3.9157
    CHARGE:  cpu time    1.1077: real time    1.1135
    --------------------------------------------
      LOOP:  cpu time   10.1001: real time   10.1552

 eigenvalue-minimisations  :     0
 total energy-change (2. order) :-0.6519622E-07  (-0.2329910E-07)
 number of electron     171.9999953 magnetization       0.0000000      0.0000000      0.0000000
 augmentation part       70.5460996 magnetization      -0.0000000     -0.0000000     -0.0006846

 Free energy of the ion-electron system (eV)
  ---------------------------------------------------
  alpha Z        PSCENC =       609.92874288
  Ewald energy   TEWEN  =    -15821.72266014
  -Hartree energ DENC   =    -10609.02140805
  -exchange      EXHF   =         0.00000000
  -V(xc)+E(xc)   XCENC  =       822.64086209
  PAW double counting   =     28343.87224178   -29267.90976414
  entropy T*S    EENTRO =         0.00000000
  eigenvalues    EBANDS =     -2664.50649231
  atomic energy  EATOM  =     28505.01627691
  ---------------------------------------------------
  free energy    TOTEN  =       -81.70220097 eV

  energy without entropy =      -81.70220097  energy(sigma->0) =      -81.70220097


--------------------------------------------------------------------------------------------------------




--------------------------------------- Iteration      1(  13)  ---------------------------------------


    POTLOK:  cpu time    0.0952: real time    0.0957
    SETDIJ:  cpu time    0.5884: real time    0.5902
    TRIAL :  cpu time    4.3319: real time    4.3567
 BZINTS: Fermi energy:  5.254179;172.000000 electrons
         Band energy:***********;  BLOECHL correction:  0.000000
 BZINTS: Fermi energy:  5.254179;172.000000 electrons
         Band energy:***********;  BLOECHL correction:  0.000000
    CORREC:  cpu time    3.9010: real time    3.9197
    CHARGE:  cpu time    1.1066: real time    1.1122
    --------------------------------------------
      LOOP:  cpu time   10.0374: real time   10.0918

 eigenvalue-minimisations  :     0
 total energy-change (2. order) :-0.8261850E-07  (-0.2368252E-07)
 number of electron     171.9999953 magnetization       0.0000000      0.0000000      0.0000000
 augmentation part       70.5460996 magnetization      -0.0000000     -0.0000000     -0.0006846

 Free energy of the ion-electron system (eV)
  ---------------------------------------------------
  alpha Z        PSCENC =       609.92874288
  Ewald energy   TEWEN  =    -15821.72266014
  -Hartree energ DENC   =    -10609.02140808
  -exchange      EXHF   =         0.00000000
  -V(xc)+E(xc)   XCENC  =       822.64086201
  PAW double counting   =     28343.87224879   -29267.90977114
  entropy T*S    EENTRO =         0.00000000
  eigenvalues    EBANDS =     -2664.50649227
  atomic energy  EATOM  =     28505.01627691
  ---------------------------------------------------
  free energy    TOTEN  =       -81.70220105 eV

  energy without entropy =      -81.70220105  energy(sigma->0) =      -81.70220105


--------------------------------------------------------------------------------------------------------




--------------------------------------- Iteration      1(  14)  ---------------------------------------


    POTLOK:  cpu time    0.0947: real time    0.0952
    SETDIJ:  cpu time    0.5871: real time    0.5890
    TRIAL :  cpu time    4.4091: real time    4.4348
 BZINTS: Fermi energy:  5.254179;172.000000 electrons
         Band energy:***********;  BLOECHL correction:  0.000000
 BZINTS: Fermi energy:  5.254179;172.000000 electrons
         Band energy:***********;  BLOECHL correction:  0.000000
    CORREC:  cpu time    3.9055: real time    3.9241
    CHARGE:  cpu time    1.1115: real time    1.1170
    --------------------------------------------
      LOOP:  cpu time   10.1239: real time   10.1796

 eigenvalue-minimisations  :     0
 total energy-change (2. order) :-0.2356683E-07  (-0.1818973E-07)
 number of electron     171.9999953 magnetization       0.0000000      0.0000000      0.0000000
 augmentation part       70.5460996 magnetization      -0.0000000     -0.0000000     -0.0006846

 Free energy of the ion-electron system (eV)
  ---------------------------------------------------
  alpha Z        PSCENC =       609.92874288
  Ewald energy   TEWEN  =    -15821.72266014
  -Hartree energ DENC   =    -10609.02140816
  -exchange      EXHF   =         0.00000000
  -V(xc)+E(xc)   XCENC  =       822.64086205
  PAW double counting   =     28343.87225627   -29267.90977862
  entropy T*S    EENTRO =         0.00000000
  eigenvalues    EBANDS =     -2664.50649227
  atomic energy  EATOM  =     28505.01627691
  ---------------------------------------------------
  free energy    TOTEN  =       -81.70220107 eV

  energy without entropy =      -81.70220107  energy(sigma->0) =      -81.70220107


--------------------------------------------------------------------------------------------------------




--------------------------------------- Iteration      1(  15)  ---------------------------------------


    POTLOK:  cpu time    0.0947: real time    0.0953
    SETDIJ:  cpu time    0.5872: real time    0.5891
    TRIAL :  cpu time    4.3224: real time    4.3478
 BZINTS: Fermi energy:  5.254179;172.000000 electrons
         Band energy:***********;  BLOECHL correction:  0.000000
 BZINTS: Fermi energy:  5.254179;172.000000 electrons
         Band energy:***********;  BLOECHL correction:  0.000000
    CORREC:  cpu time    3.8898: real time    3.9086
    CHARGE:  cpu time    1.1060: real time    1.1114
    --------------------------------------------
      LOOP:  cpu time   10.0176: real time   10.0731

 eigenvalue-minimisations  :     0
 total energy-change (2. order) :-0.8907591E-07  (-0.1747511E-07)
 number of electron     171.9999953 magnetization       0.0000000      0.0000000      0.0000000
 augmentation part       70.5460996 magnetization      -0.0000000     -0.0000000     -0.0006846

 Free energy of the ion-electron system (eV)
  ---------------------------------------------------
  alpha Z        PSCENC =       609.92874288
  Ewald energy   TEWEN  =    -15821.72266014
  -Hartree energ DENC   =    -10609.02140820
  -exchange      EXHF   =         0.00000000
  -V(xc)+E(xc)   XCENC  =       822.64086194
  PAW double counting   =     28343.87226234   -29267.90978469
  entropy T*S    EENTRO =         0.00000000
  eigenvalues    EBANDS =     -2664.50649220
  atomic energy  EATOM  =     28505.01627691
  ---------------------------------------------------
  free energy    TOTEN  =       -81.70220116 eV

  energy without entropy =      -81.70220116  energy(sigma->0) =      -81.70220116


--------------------------------------------------------------------------------------------------------




--------------------------------------- Iteration      1(  16)  ---------------------------------------


    POTLOK:  cpu time    0.0945: real time    0.0950
    SETDIJ:  cpu time    0.5871: real time    0.5890
    TRIAL :  cpu time    4.3539: real time    4.3794
 BZINTS: Fermi energy:  5.254179;172.000000 electrons
         Band energy:***********;  BLOECHL correction:  0.000000
 BZINTS: Fermi energy:  5.254179;172.000000 electrons
         Band energy:***********;  BLOECHL correction:  0.000000
    CORREC:  cpu time    3.9414: real time    3.9603
    CHARGE:  cpu time    1.1068: real time    1.1125
    --------------------------------------------
      LOOP:  cpu time   10.1007: real time   10.1558

 eigenvalue-minimisations  :     0
 total energy-change (2. order) :-0.2488378E-08  (-0.1473362E-07)
 number of electron     171.9999953 magnetization       0.0000000      0.0000000      0.0000000
 augmentation part       70.5460996 magnetization      -0.0000000     -0.0000000     -0.0006846

 Free energy of the ion-electron system (eV)
  ---------------------------------------------------
  alpha Z        PSCENC =       609.92874288
  Ewald energy   TEWEN  =    -15821.72266014
  -Hartree energ DENC   =    -10609.02140828
  -exchange      EXHF   =         0.00000000
  -V(xc)+E(xc)   XCENC  =       822.64086200
  PAW double counting   =     28343.87226841   -29267.90979076
  entropy T*S    EENTRO =         0.00000000
  eigenvalues    EBANDS =     -2664.50649219
  atomic energy  EATOM  =     28505.01627691
  ---------------------------------------------------
  free energy    TOTEN  =       -81.70220116 eV

  energy without entropy =      -81.70220116  energy(sigma->0) =      -81.70220116


--------------------------------------------------------------------------------------------------------




--------------------------------------- Iteration      1(  17)  ---------------------------------------


    POTLOK:  cpu time    0.0949: real time    0.0955
    SETDIJ:  cpu time    0.5870: real time    0.5890
    TRIAL :  cpu time    4.3589: real time    4.3847
 BZINTS: Fermi energy:  5.254179;172.000000 electrons
         Band energy:***********;  BLOECHL correction:  0.000000
 BZINTS: Fermi energy:  5.254179;172.000000 electrons
         Band energy:***********;  BLOECHL correction:  0.000000
    CORREC:  cpu time    3.9020: real time    3.9209
    CHARGE:  cpu time    1.1097: real time    1.1155
    --------------------------------------------
      LOOP:  cpu time   10.0700: real time   10.1238

 eigenvalue-minimisations  :     0
 total energy-change (2. order) :-0.6048504E-07  (-0.1327667E-07)
 number of electron     171.9999953 magnetization       0.0000000      0.0000000      0.0000000
 augmentation part       70.5460996 magnetization      -0.0000000     -0.0000000     -0.0006846

 Free energy of the ion-electron system (eV)
  ---------------------------------------------------
  alpha Z        PSCENC =       609.92874288
  Ewald energy   TEWEN  =    -15821.72266014
  -Hartree energ DENC   =    -10609.02140834
  -exchange      EXHF   =         0.00000000
  -V(xc)+E(xc)   XCENC  =       822.64086193
  PAW double counting   =     28343.87227377   -29267.90979611
  entropy T*S    EENTRO =         0.00000000
  eigenvalues    EBANDS =     -2664.50649213
  atomic energy  EATOM  =     28505.01627691
  ---------------------------------------------------
  free energy    TOTEN  =       -81.70220122 eV

  energy without entropy =      -81.70220122  energy(sigma->0) =      -81.70220122


--------------------------------------------------------------------------------------------------------




--------------------------------------- Iteration      1(  18)  ---------------------------------------


    POTLOK:  cpu time    0.0953: real time    0.0959
    SETDIJ:  cpu time    0.5871: real time    0.5890
    TRIAL :  cpu time    4.3317: real time    4.3573
 BZINTS: Fermi energy:  5.254179;172.000000 electrons
         Band energy:***********;  BLOECHL correction:  0.000000
 BZINTS: Fermi energy:  5.254179;172.000000 electrons
         Band energy:***********;  BLOECHL correction:  0.000000
    CORREC:  cpu time    3.9221: real time    3.9413
    CHARGE:  cpu time    1.1068: real time    1.1124
    --------------------------------------------
      LOOP:  cpu time   10.0600: real time   10.1159

 eigenvalue-minimisations  :     0
 total energy-change (2. order) :-0.3109744E-07  (-0.1159204E-07)
 number of electron     171.9999953 magnetization       0.0000000      0.0000000      0.0000000
 augmentation part       70.5460996 magnetization      -0.0000000     -0.0000000     -0.0006846

 Free energy of the ion-electron system (eV)
  ---------------------------------------------------
  alpha Z        PSCENC =       609.92874288
  Ewald energy   TEWEN  =    -15821.72266014
  -Hartree energ DENC   =    -10609.02140841
  -exchange      EXHF   =         0.00000000
  -V(xc)+E(xc)   XCENC  =       822.64086192
  PAW double counting   =     28343.87227879   -29267.90980114
  entropy T*S    EENTRO =         0.00000000
  eigenvalues    EBANDS =     -2664.50649207
  atomic energy  EATOM  =     28505.01627691
  ---------------------------------------------------
  free energy    TOTEN  =       -81.70220126 eV

  energy without entropy =      -81.70220126  energy(sigma->0) =      -81.70220126


--------------------------------------------------------------------------------------------------------




--------------------------------------- Iteration      1(  19)  ---------------------------------------


    POTLOK:  cpu time    0.0943: real time    0.0948
    SETDIJ:  cpu time    0.5872: real time    0.5890
    TRIAL :  cpu time    4.3752: real time    4.4009
 BZINTS: Fermi energy:  5.254179;172.000000 electrons
         Band energy:***********;  BLOECHL correction:  0.000000
 BZINTS: Fermi energy:  5.254179;172.000000 electrons
         Band energy:***********;  BLOECHL correction:  0.000000
    CORREC:  cpu time    3.8973: real time    3.9160
    CHARGE:  cpu time    1.1068: real time    1.1125
    --------------------------------------------
      LOOP:  cpu time   10.0768: real time   10.1300

 eigenvalue-minimisations  :     0
 total energy-change (2. order) :-0.2577144E-07  (-0.1065994E-07)
 number of electron     171.9999953 magnetization       0.0000000      0.0000000      0.0000000
 augmentation part       70.5460996 magnetization      -0.0000000     -0.0000000     -0.0006846

 Free energy of the ion-electron system (eV)
  ---------------------------------------------------
  alpha Z        PSCENC =       609.92874288
  Ewald energy   TEWEN  =    -15821.72266014
  -Hartree energ DENC   =    -10609.02140847
  -exchange      EXHF   =         0.00000000
  -V(xc)+E(xc)   XCENC  =       822.64086191
  PAW double counting   =     28343.87228331   -29267.90980565
  entropy T*S    EENTRO =         0.00000000
  eigenvalues    EBANDS =     -2664.50649203
  atomic energy  EATOM  =     28505.01627691
  ---------------------------------------------------
  free energy    TOTEN  =       -81.70220128 eV

  energy without entropy =      -81.70220128  energy(sigma->0) =      -81.70220128


--------------------------------------------------------------------------------------------------------




--------------------------------------- Iteration      1(  20)  ---------------------------------------


    POTLOK:  cpu time    0.0947: real time    0.0952
    SETDIJ:  cpu time    0.5870: real time    0.5889
    TRIAL :  cpu time    4.3573: real time    4.3829
 BZINTS: Fermi energy:  5.254179;172.000000 electrons
         Band energy:***********;  BLOECHL correction:  0.000000
 BZINTS: Fermi energy:  5.254179;172.000000 electrons
         Band energy:***********;  BLOECHL correction:  0.000000
    CORREC:  cpu time    3.8934: real time    3.9123
    CHARGE:  cpu time    1.1045: real time    1.1100
    --------------------------------------------
      LOOP:  cpu time   10.0509: real time   10.1058

 eigenvalue-minimisations  :     0
 total energy-change (2. order) :-0.4624962E-07  (-0.8826322E-08)
 number of electron     171.9999953 magnetization       0.0000000      0.0000000      0.0000000
 augmentation part       70.5460996 magnetization      -0.0000000     -0.0000000     -0.0006846

 Free energy of the ion-electron system (eV)
  ---------------------------------------------------
[...]
 -0.000   0.000  -0.000   0.000   0.000   0.000   0.000  -0.000   0.000  -0.000   0.000   0.000   0.000  -0.000   0.000  -0.000
 pseudopotential strength for first ion, spin component:           3
  0.000   0.000   0.000   0.000   0.000  -0.000  -0.000   0.000  -0.000  -0.000   0.000  -0.000  -0.000   0.000  -0.000  -0.000
  0.000   0.000   0.000   0.000   0.000  -0.000  -0.000   0.000  -0.000  -0.000   0.000  -0.000  -0.000   0.000  -0.000  -0.000
  0.000  -0.000   0.000  -0.000   0.000   0.000   0.000   0.000   0.000  -0.000   0.000   0.000   0.000   0.000   0.000  -0.000
 -0.000   0.000  -0.000   0.000   0.000   0.000   0.000   0.000   0.000   0.000   0.000   0.000   0.000   0.000   0.000   0.000
 -0.000  -0.000  -0.000  -0.000   0.000  -0.000   0.000   0.000   0.000   0.000   0.000  -0.000   0.000   0.000   0.000   0.000
  0.000  -0.000   0.000  -0.000   0.000   0.000   0.000   0.000   0.000  -0.000   0.000   0.000   0.000   0.000   0.000  -0.000
 -0.000   0.000  -0.000   0.000   0.000   0.000   0.000   0.000   0.000   0.000   0.000   0.000   0.000   0.000   0.000   0.000
 -0.000  -0.000  -0.000  -0.000   0.000  -0.000   0.000   0.000   0.000   0.000   0.000  -0.000   0.000   0.000   0.000   0.000
 pseudopotential strength for first ion, spin component:           4
 39.419   0.000  45.270   0.000  -0.002   0.000  -0.001   0.000  -0.002   0.000  -0.003   0.000  -0.001   0.000  -0.003   0.000
 45.270   0.000  51.993   0.000  -0.002   0.000  -0.001   0.000  -0.003   0.000  -0.003   0.000  -0.001   0.000  -0.004   0.000
 -0.002   0.000  -0.002   0.000   8.192   0.000   0.002   0.000  -0.000   0.000  11.104   0.000   0.002   0.000  -0.000   0.000
 -0.001   0.000  -0.001   0.000   0.002   0.000   8.190   0.000  -0.001   0.000   0.002   0.000  11.101   0.000  -0.001   0.000
 -0.002   0.000  -0.003   0.000  -0.000   0.000  -0.001   0.000   8.190   0.000  -0.000   0.000  -0.001   0.000  11.101   0.000
 -0.003   0.000  -0.003   0.000  11.104   0.000   0.002   0.000  -0.000   0.000  15.071   0.000   0.003   0.000  -0.000   0.000
 -0.001   0.000  -0.001   0.000   0.002   0.000  11.101   0.000  -0.001   0.000   0.003   0.000  15.067   0.000  -0.002   0.000
 -0.003   0.000  -0.004   0.000  -0.000   0.000  -0.001   0.000  11.101   0.000  -0.000   0.000  -0.002   0.000  15.067   0.000
 total augmentation occupancy for first ion, spin component:           1
 11.452  -7.205   0.000   0.000  -0.467   0.000   0.000   0.110
 -7.205   5.249   0.000   0.000   0.381   0.000   0.000  -0.061
  0.000   0.000   3.904   0.086   0.000  -1.168  -0.045   0.000
  0.000   0.000   0.086   3.590   0.000  -0.045  -1.007   0.000
 -0.467   0.381   0.000   0.000   3.619   0.000   0.000  -1.020
  0.000   0.000  -1.168  -0.045   0.000   0.404   0.017   0.000
  0.000   0.000  -0.045  -1.007   0.000   0.017   0.342   0.000
  0.110  -0.061   0.000   0.000  -1.020   0.000   0.000   0.349
 total augmentation occupancy for first ion, spin component:           2
 -0.000   0.000   0.000   0.000   0.000  -0.000   0.000  -0.000
  0.000  -0.000   0.000   0.000  -0.000   0.000   0.000   0.000
 -0.000   0.000   0.000   0.000  -0.000  -0.000  -0.000   0.000
  0.000   0.000   0.000  -0.000   0.000  -0.000   0.000   0.000
  0.000  -0.000  -0.000   0.000  -0.000   0.000  -0.000   0.000
  0.000   0.000  -0.000  -0.000   0.000   0.000   0.000   0.000
  0.000  -0.000  -0.000   0.000   0.000   0.000  -0.000   0.000
 -0.000   0.000   0.000   0.000   0.000   0.000   0.000  -0.000
 total augmentation occupancy for first ion, spin component:           3
  0.000   0.000  -0.000   0.000   0.000   0.000  -0.000   0.000
  0.000   0.000   0.000  -0.000   0.000  -0.000   0.000   0.000
 -0.000   0.000   0.000  -0.000   0.000  -0.000   0.000  -0.000
  0.000  -0.000   0.000   0.000  -0.000   0.000   0.000   0.000
  0.000   0.000   0.000  -0.000   0.000  -0.000   0.000  -0.000
  0.000  -0.000  -0.000   0.000  -0.000   0.000   0.000   0.000
 -0.000   0.000   0.000  -0.000   0.000   0.000   0.000  -0.000
  0.000   0.000  -0.000   0.000  -0.000   0.000  -0.000   0.000
 total augmentation occupancy for first ion, spin component:           4
  0.000   0.000   0.090   0.091  -0.000   0.091   0.087  -0.000
  0.000   0.000  -0.068  -0.071   0.000  -0.098  -0.094   0.000
  0.090  -0.068   0.000   0.000   0.009  -0.000   0.000  -0.010
  0.091  -0.071   0.000  -0.000   0.008  -0.000  -0.000  -0.001
 -0.000   0.000   0.009   0.008   0.000  -0.009  -0.001  -0.000
  0.091  -0.098  -0.000   0.000  -0.009   0.000  -0.000   0.017
  0.087  -0.094   0.000  -0.000  -0.001  -0.000  -0.000   0.014
 -0.000   0.000  -0.010  -0.001   0.000   0.017   0.014   0.000


------------------------ aborting loop because EDIFF is reached ----------------------------------------


 


 total charge     
 
# of ion       s       p       d       tot
------------------------------------------
    1        1.314   2.422   0.000   3.736
    2        1.314   2.421   0.000   3.735
    3        1.315   2.416   0.000   3.731
    4        1.315   2.417   0.000   3.732
    5        1.314   2.421   0.000   3.735
    6        1.314   2.422   0.000   3.736
    7        1.315   2.416   0.000   3.731
    8        1.315   2.417   0.000   3.732
    9        0.266   6.213   8.915  15.394
   10        0.266   6.213   8.915  15.394
   11        0.266   6.213   8.915  15.394
   12        0.266   6.213   8.915  15.394
   13        0.354   6.365   5.846  12.566
   14        0.354   6.365   5.846  12.566
   15        0.354   6.365   5.846  12.566
   16        0.354   6.365   5.846  12.566
--------------------------------------------------
tot         12.999  69.663  59.046 141.708
 


 magnetization (x)
 
# of ion       s       p       d       tot
------------------------------------------
    1       -0.000  -0.000   0.000  -0.000
    2        0.000   0.000   0.000   0.000
    3        0.000  -0.000   0.000   0.000
    4       -0.000  -0.000   0.000  -0.000
    5        0.000   0.000   0.000   0.000
    6       -0.000  -0.000   0.000  -0.000
    7        0.000  -0.000   0.000   0.000
    8        0.000  -0.000   0.000  -0.000
    9       -0.000  -0.000  -0.000  -0.000
   10        0.000  -0.000   0.000   0.000
   11       -0.000  -0.000  -0.000  -0.000
   12        0.000  -0.000   0.000   0.000
   13        0.000   0.000  -0.000  -0.000
   14       -0.000  -0.000  -0.000  -0.000
   15        0.000   0.000  -0.000  -0.000
   16       -0.000  -0.000  -0.000  -0.000
--------------------------------------------------
tot          0.000  -0.000  -0.000   0.000
 


 magnetization (y)
 
# of ion       s       p       d       tot
------------------------------------------
    1        0.000  -0.000   0.000   0.000
    2       -0.000   0.000   0.000  -0.000
    3        0.000  -0.000   0.000  -0.000
    4       -0.000   0.000   0.000   0.000
    5       -0.000   0.000   0.000  -0.000
    6        0.000  -0.000   0.000   0.000
    7        0.000  -0.000   0.000  -0.000
    8       -0.000   0.000   0.000   0.000
    9        0.000   0.000  -0.000  -0.000
   10       -0.000  -0.000   0.000  -0.000
   11        0.000   0.000  -0.000  -0.000
   12       -0.000  -0.000   0.000  -0.000
   13        0.000   0.000   0.000   0.000
   14        0.000   0.000   0.000   0.000
   15        0.000   0.000   0.000   0.000
   16        0.000   0.000  -0.000   0.000
--------------------------------------------------
tot          0.000   0.000  -0.000   0.000
 


 magnetization (z)
 
# of ion       s       p       d       tot
------------------------------------------
    1        0.000  -0.003   0.000  -0.003
    2        0.000  -0.003   0.000  -0.003
    3       -0.000   0.003   0.000   0.003
    4       -0.000   0.003   0.000   0.003
    5        0.000  -0.003   0.000  -0.003
    6        0.000  -0.003   0.000  -0.003
    7       -0.000   0.003   0.000   0.003
    8       -0.000   0.003   0.000   0.003
    9        0.000   0.002  -0.009  -0.007
   10       -0.000  -0.002   0.008   0.006
   11        0.000   0.002  -0.009  -0.007
   12       -0.000  -0.002   0.008   0.006
   13        0.020   0.055   3.627   3.702
   14       -0.020  -0.055  -3.627  -3.701
   15        0.020   0.055   3.627   3.702
   16       -0.020  -0.055  -3.627  -3.701
--------------------------------------------------
tot          0.000   0.000  -0.001  -0.000
 
    FORLOC:  cpu time    0.0028: real time    0.0028
    FORNL :  cpu time    1.1146: real time    1.1198
    STRESS:  cpu time    1.0693: real time    1.0742
    FORCOR:  cpu time    0.0848: real time    0.0853
    OFIELD:  cpu time    0.0003: real time    0.0003

  FORCE on cell =-STRESS in cart. coord.  units (eV):
  Direction    XX          YY          ZZ          XY          YZ          ZX
  --------------------------------------------------------------------------------------
  Alpha Z   609.92874   609.92874   609.92874
  Ewald   -5433.69794 -4916.65777 -5471.40236     0.00000     0.00000    -0.00000
  Hartree  3464.17199  3694.05787  3450.79155    -0.00000     0.00000     0.00000
  E(xc)   -1051.72787 -1051.44037 -1051.72392    -0.00000    -0.00000    -0.00000
  Local    -936.57044 -1681.41588  -882.25160     0.00000    -0.00000    -0.00000
  n-local   121.95243   129.56733   121.96069    -0.19480    -0.08997    -0.02279
  augment  1179.68171  1184.12675  1177.41570     0.00000    -0.00000    -0.00000
  Kinetic  2053.35471  2031.83335  2051.81593    -0.81778     0.06470    -0.01672
  Fock        0.00000     0.00000     0.00000     0.00000     0.00000     0.00000
  -------------------------------------------------------------------------------------
  Total       7.09333     0.00003     6.53473     0.00000     0.00000     0.00000
  in kB      40.90783     0.00015    37.68631     0.00000     0.00000     0.00000
  external pressure =       26.20 kB  Pullay stress =        0.00 kB


 VOLUME and BASIS-vectors are now :
 -----------------------------------------------------------------------------
  energy-cutoff  :      700.00
  volume of cell :      277.81
      direct lattice vectors                 reciprocal lattice vectors
     4.995846373  0.000000000  0.000000000     0.200166283  0.000000000  0.000000000
     0.000000000  5.623939237  0.000000000     0.000000000  0.177811309  0.000000000
     0.000000000  0.000000000  9.887918007     0.000000000  0.000000000  0.101133525

  length of vectors
     4.995846373  5.623939237  9.887918007     0.200166283  0.177811309  0.101133525


 FORCES acting on ions:
    Electron-Ion                     Ewald-Force                    Non-Local-Force
 -----------------------------------------------------------------------------------------------
   0.408E+02 0.196E-12 0.153E-12   -.416E+02 0.284E-13 0.273E-11   0.816E+00 -.217E-18 0.260E-17
   -.408E+02 0.857E-12 -.182E-11   0.416E+02 -.142E-13 0.281E-11   -.816E+00 -.434E-18 -.260E-17
   0.546E-12 -.470E+02 0.264E-12   0.542E-12 0.480E+02 0.668E-12   0.434E-18 -.103E+01 -.434E-18
   0.728E-12 0.470E+02 -.316E-12   -.127E-11 -.480E+02 0.696E-12   -.651E-18 0.103E+01 0.000E+00
   -.408E+02 -.496E-12 -.392E-13   0.416E+02 -.728E-13 -.283E-11   -.816E+00 -.434E-18 0.260E-17
   0.408E+02 0.183E-12 -.245E-12   -.416E+02 0.409E-13 -.274E-11   0.816E+00 -.217E-18 0.434E-17
   0.410E-12 -.470E+02 0.923E-12   -.128E-11 0.480E+02 -.540E-12   0.434E-18 -.103E+01 -.434E-18
   0.364E-12 0.470E+02 0.463E-12   0.611E-12 -.480E+02 -.568E-12   -.217E-18 0.103E+01 0.000E+00
   -.137E-12 -.131E-12 -.531E+01   0.135E-04 -.267E-04 0.535E+01   0.000E+00 0.000E+00 -.471E-01
   0.130E-11 0.131E-12 0.531E+01   -.135E-04 -.267E-04 -.535E+01   0.000E+00 0.000E+00 0.471E-01
   0.134E-11 0.358E-11 -.531E+01   -.135E-04 0.267E-04 0.535E+01   0.000E+00 0.000E+00 -.471E-01
   -.159E-12 0.299E-11 0.531E+01   0.135E-04 0.267E-04 -.535E+01   0.000E+00 0.000E+00 0.471E-01
   0.671E-12 0.192E-12 0.136E+02   -.107E-04 0.224E-04 -.136E+02   0.217E-18 -.434E-18 0.497E-03
   0.132E-11 -.192E-12 -.136E+02   0.107E-04 0.224E-04 0.136E+02   0.217E-18 -.434E-18 -.497E-03
   0.127E-11 0.226E-11 0.136E+02   0.107E-04 -.224E-04 -.136E+02   0.217E-18 -.434E-18 0.497E-03
   0.649E-12 0.253E-12 -.136E+02   -.107E-04 -.224E-04 0.136E+02   0.217E-18 -.434E-18 -.497E-03
 -----------------------------------------------------------------------------------------------
   0.172E-10 0.945E-11 -.150E-11   -.497E-13 -.312E-13 0.444E-13   -.110E-15 -.173E-17 -.139E-16
 
 
 POSITION                                       TOTAL-FORCE (eV/Angst)
 -----------------------------------------------------------------------------------
      1.25722      1.40598      1.23599        -0.000003      0.000000      0.000000
      3.73862      4.21795      1.23599         0.000003      0.000000     -0.000000
      1.24896      4.20098      8.65193         0.000000     -0.000003      0.000000
      3.74688      1.42296      8.65193         0.000000      0.000003      0.000000
      1.24070      1.40598      6.17995         0.000003      0.000000     -0.000000
      3.75515      4.21795      6.17995        -0.000003      0.000000      0.000000
      3.74688      1.38901      3.70797         0.000000     -0.000003      0.000000
      1.24896      4.23493      3.70797        -0.000000      0.000003     -0.000000
      0.00000      0.00000      4.95598         0.000000      0.000000      0.000008
      2.49792      0.00000      2.45995         0.000000      0.000000     -0.000008
      2.49792      2.81197      0.01203         0.000000      0.000000      0.000008
      0.00000      2.81197      7.40391         0.000000      0.000000     -0.000008
      0.00000      0.00000      9.88642         0.000000      0.000000     -0.000004
      2.49792      0.00000      7.41743         0.000000      0.000000      0.000004
      2.49792      2.81197      4.94246         0.000000      0.000000     -0.000004
      0.00000      2.81197      2.47347         0.000000      0.000000      0.000004
 -----------------------------------------------------------------------------------
    total drift:                                0.000000      0.000000     -0.000000


--------------------------------------------------------------------------------------------------------



  FREE ENERGIE OF THE ION-ELECTRON SYSTEM (eV)
  ---------------------------------------------------
  free  energy   TOTEN  =       -81.70220201 eV

  energy  without entropy=      -81.70220201  energy(sigma->0) =      -81.70220201
 


--------------------------------------------------------------------------------------------------------


    POTLOK:  cpu time    0.6895: real time    0.6922


--------------------------------------------------------------------------------------------------------


 writing wavefunctions
     LOOP+:  cpu time  327.0037: real time  404.0677
    4ORBIT:  cpu time    0.0000: real time    0.0000
 


 total charge     
 
# of ion       s       p       d       tot
------------------------------------------
    1        1.314   2.422   0.000   3.736
    2        1.314   2.421   0.000   3.735
    3        1.315   2.416   0.000   3.731
    4        1.315   2.417   0.000   3.732
    5        1.314   2.421   0.000   3.735
    6        1.314   2.422   0.000   3.736
    7        1.315   2.416   0.000   3.731
    8        1.315   2.417   0.000   3.732
    9        0.266   6.213   8.915  15.394
   10        0.266   6.213   8.915  15.394
   11        0.266   6.213   8.915  15.394
   12        0.266   6.213   8.915  15.394
   13        0.354   6.365   5.846  12.566
   14        0.354   6.365   5.846  12.566
   15        0.354   6.365   5.846  12.566
   16        0.354   6.365   5.846  12.566
--------------------------------------------------
tot         12.999  69.663  59.046 141.708
 


 magnetization (x)
 
# of ion       s       p       d       tot
------------------------------------------
    1       -0.000  -0.000   0.000  -0.000
    2        0.000   0.000   0.000   0.000
    3        0.000  -0.000   0.000   0.000
    4       -0.000  -0.000   0.000  -0.000
    5        0.000   0.000   0.000   0.000
    6       -0.000  -0.000   0.000  -0.000
    7        0.000  -0.000   0.000   0.000
    8        0.000  -0.000   0.000  -0.000
    9       -0.000  -0.000  -0.000  -0.000
   10        0.000  -0.000   0.000   0.000
   11       -0.000  -0.000  -0.000  -0.000
   12        0.000  -0.000   0.000   0.000
   13        0.000   0.000  -0.000  -0.000
   14       -0.000  -0.000  -0.000  -0.000
   15        0.000   0.000  -0.000  -0.000
   16       -0.000  -0.000  -0.000  -0.000
--------------------------------------------------
tot          0.000  -0.000  -0.000   0.000
 


 magnetization (y)
 
# of ion       s       p       d       tot
------------------------------------------
    1        0.000  -0.000   0.000   0.000
    2       -0.000   0.000   0.000  -0.000
    3        0.000  -0.000   0.000  -0.000
    4       -0.000   0.000   0.000   0.000
    5       -0.000   0.000   0.000  -0.000
    6        0.000  -0.000   0.000   0.000
    7        0.000  -0.000   0.000  -0.000
    8       -0.000   0.000   0.000   0.000
    9        0.000   0.000  -0.000  -0.000
   10       -0.000  -0.000   0.000  -0.000
   11        0.000   0.000  -0.000  -0.000
   12       -0.000  -0.000   0.000  -0.000
   13        0.000   0.000   0.000   0.000
   14        0.000   0.000   0.000   0.000
   15        0.000   0.000   0.000   0.000
   16        0.000   0.000  -0.000   0.000
--------------------------------------------------
tot          0.000   0.000  -0.000   0.000
 


 magnetization (z)
 
# of ion       s       p       d       tot
------------------------------------------
    1        0.000  -0.003   0.000  -0.003
    2        0.000  -0.003   0.000  -0.003
    3       -0.000   0.003   0.000   0.003
    4       -0.000   0.003   0.000   0.003
    5        0.000  -0.003   0.000  -0.003
    6        0.000  -0.003   0.000  -0.003
    7       -0.000   0.003   0.000   0.003
    8       -0.000   0.003   0.000   0.003
    9        0.000   0.002  -0.009  -0.007
   10       -0.000  -0.002   0.008   0.006
   11        0.000   0.002  -0.009  -0.007
   12       -0.000  -0.002   0.008   0.006
   13        0.020   0.055   3.627   3.702
   14       -0.020  -0.055  -3.627  -3.701
   15        0.020   0.055   3.627   3.702
   16       -0.020  -0.055  -3.627  -3.701
--------------------------------------------------
tot          0.000   0.000  -0.001  -0.000
 
 BZINTS: Fermi energy:  5.254178;172.000000 electrons
         Band energy:***********;  BLOECHL correction:  0.000000
 BZINTS: Fermi energy:  5.254178;172.000000 electrons
         Band energy:***********;  BLOECHL correction:  0.000000
 BZINTS: Fermi energy:  5.254178;172.000000 electrons
         Band energy:***********;  BLOECHL correction:  0.000000
 BZINTS: Fermi energy:  5.254178;172.000000 electrons
         Band energy:***********;  BLOECHL correction:  0.000000

 total amount of memory used by VASP MPI-rank0    79974. kBytes
=======================================================================

   base      :      30000. kBytes
   nonl-proj :       6070. kBytes
   fftplans  :       1422. kBytes
   grid      :       5760. kBytes
   one-center:         62. kBytes
   wavefun   :      36660. kBytes
 
  
  
 General timing and accounting informations for this job:
 ========================================================
  
                  Total CPU time used (sec):      358.178
                            User time (sec):      347.033
                          System time (sec):       11.144
                         Elapsed time (sec):      436.519
  
                   Maximum memory used (kb):      535648.
                   Average memory used (kb):           0.
  
                          Minor page faults:       294710
                          Major page faults:         2769
                 Voluntary context switches:         6314
