 vasp.5.4.4.18Apr17-6-g9f103f2a35 (build Oct 30 2023 17:30:16) complex          
  
 executed on             LinuxIFC date 2024.06.30  18:48:50
 running on  256 total cores
 distrk:  each k-point on  256 cores,    1 groups
 distr:  one band on NCORES_PER_BAND=   1 cores,  256 groups


--------------------------------------------------------------------------------------------------------


 INCAR:
 POTCAR:    PAW_PBE S 06Sep2000                   
 POTCAR:     PAW_PBE Cu_pv 06Sep2000              
 POTCAR:     PAW_PBE Fe_pv 02Aug2007              

 ----------------------------------------------------------------------------- 
|                                                                             |
|           W    W    AA    RRRRR   N    N  II  N    N   GGGG   !!!           |
|           W    W   A  A   R    R  NN   N  II  NN   N  G    G  !!!           |
|           W    W  A    A  R    R  N N  N  II  N N  N  G       !!!           |
|           W WW W  AAAAAA  RRRRR   N  N N  II  N  N N  G  GGG   !            |
|           WW  WW  A    A  R   R   N   NN  II  N   NN  G    G                |
|           W    W  A    A  R    R  N    N  II  N    N   GGGG   !!!           |
|                                                                             |
|      For optimal performance we recommend to set                            |
|        NCORE= 4 - approx SQRT( number of cores)                             |
|      NCORE specifies how many cores store one orbital (NPAR=cpu/NCORE).     |
|      This setting can  greatly improve the performance of VASP for DFT.     |
|      The default,   NCORE=1            might be grossly inefficient         |
|      on modern multi-core architectures or massively parallel machines.     |
|      Do your own testing !!!!                                               |
|      Unfortunately you need to use the default for GW and RPA calculations. |
|      (for HF NCORE is supported but not extensively tested yet)             |
|                                                                             |
 ----------------------------------------------------------------------------- 

 POTCAR:    PAW_PBE S 06Sep2000                   
   SHA256 =  0fc7481fb0695f01bdc6462160264c5c84044ae9ec85a907d398b887a2bc3132 S/
   COPYR  = (c) Copyright 06Sep2000 Georg Kresse                                
   COPYR  = This file is part of the software VASP. Any use, copying, and all ot
   COPYR  = If you do not have a valid VASP license, you may not use, copy or di
   VRHFIN =S : s2p4                                                             
   LEXCH  = PE                                                                  
   EATOM  =   276.8230 eV,   20.3459 Ry                                         
                                                                                
   TITEL  = PAW_PBE S 06Sep2000                                                 
   LULTRA =        F    use ultrasoft PP ?                                      
   IUNSCR =        1    unscreen: 0-lin 1-nonlin 2-no                           
   RPACOR =    1.500    partial core radius                                     
   POMASS =   32.066; ZVAL   =    6.000    mass and valenz                      
   RCORE  =    1.900    outmost cutoff radius                                   
   RWIGS  =    2.200; RWIGS  =    1.164    wigner-seitz radius (au A)           
   ENMAX  =  258.689; ENMIN  =  194.016 eV                                      
   ICORE  =        2    local potential                                         
   LCOR   =        T    correct aug charges                                     
   LPAW   =        T    paw PP                                                  
   EAUG   =  335.092                                                            
   DEXC   =    0.000                                                            
   RMAX   =    1.942    core radius for proj-oper                               
   RAUG   =    1.300    factor for augmentation sphere                          
   RDEP   =    1.954    radius for radial grids                                 
   RDEPT  =    1.744    core radius for aug-charge                              
                                                                                
   Atomic configuration                                                         
    6 entries                                                                   
     n  l   j            E        occ.                                          
     1  0  0.50     -2405.8406   2.0000                                         
     2  0  0.50      -211.7007   2.0000                                         
     2  1  1.50      -156.4958   6.0000                                         
     3  0  0.50       -17.2562   2.0000                                         
     3  1  0.50        -7.0085   4.0000                                         
     3  2  1.50        -6.8029   0.0000                                         
   Description                                                                  
     l       E           TYP  RCUT    TYP  RCUT                                 
     0    -17.2561641     23  1.900                                             
     0    -15.8743224     23  1.900                                             
     1     -7.0085400     23  1.900                                             
     1     -2.7779785     23  1.900                                             
     2     -6.8029130     23  1.900                                             
  local pseudopotential read in
  partial core-charges read in
  partial kinetic energy density read in
  atomic valenz-charges read in
  non local Contribution for L=           0  read in
    real space projection operators read in
  non local Contribution for L=           0  read in
    real space projection operators read in
  non local Contribution for L=           1  read in
    real space projection operators read in
  non local Contribution for L=           1  read in
    real space projection operators read in
    PAW grid and wavefunctions read in
 
   number of l-projection  operators is LMAX  =           4
   number of lm-projection operators is LMMAX =           8
 
 POTCAR:     PAW_PBE Cu_pv 06Sep2000              
   SHA256 =  cb7b504e2ea725fe1f25c85a9ac77d4012ce94cd394135b722c4e25ec297f1cb Cu
   COPYR  = (c) Copyright 06Sep2000 Georg Kresse                                
   COPYR  = This file is part of the software VASP. Any use, copying, and all ot
   COPYR  = If you do not have a valid VASP license, you may not use, copy or di
   VRHFIN =Cu: d10 p1                                                           
   LEXCH  = PE                                                                  
   EATOM  =  4120.1201 eV,  302.8203 Ry                                         
                                                                                
   TITEL  = PAW_PBE Cu_pv 06Sep2000                                             
   LULTRA =        F    use ultrasoft PP ?                                      
   IUNSCR =        1    unscreen: 0-lin 1-nonlin 2-no                           
   RPACOR =    1.500    partial core radius                                     
   POMASS =   63.546; ZVAL   =   17.000    mass and valenz                      
   RCORE  =    2.000    outmost cutoff radius                                   
   RWIGS  =    2.000; RWIGS  =    1.058    wigner-seitz radius (au A)           
   ENMAX  =  368.648; ENMIN  =  276.486 eV                                      
   RCLOC  =    1.304    cutoff for local pot                                    
   LCOR   =        T    correct aug charges                                     
   LPAW   =        T    paw PP                                                  
   EAUG   =  758.233                                                            
   DEXC   =    0.000                                                            
   RMAX   =    2.046    core radius for proj-oper                               
   RAUG   =    1.300    factor for augmentation sphere                          
   RDEP   =    2.025    radius for radial grids                                 
   RDEPT  =    1.558    core radius for aug-charge                              
                                                                                
   Atomic configuration                                                         
    8 entries                                                                   
     n  l   j            E        occ.                                          
     1  0  0.50     -8850.2467   2.0000                                         
     2  0  0.50     -1062.3498   2.0000                                         
     2  1  1.50      -916.8226   6.0000                                         
     3  0  0.50      -114.6929   2.0000                                         
     3  1  1.50       -72.1325   6.0000                                         
     3  2  2.50        -5.0394  10.0000                                         
     4  0  0.50        -4.6097   1.0000                                         
     4  3  2.50        -1.3606   0.0000                                         
   Description                                                                  
     l       E           TYP  RCUT    TYP  RCUT                                 
     1    -72.1324777     23  1.700                                             
     1     -1.3605826     23  1.700                                             
     2     -5.0393776     23  2.000                                             
     2     -6.3999602     23  2.000                                             
     0     -4.6097062     23  1.800                                             
     0     14.1620818     23  1.800                                             
  local pseudopotential read in
  partial core-charges read in
  partial kinetic energy density read in
  atomic valenz-charges read in
  non local Contribution for L=           1  read in
    real space projection operators read in
  non local Contribution for L=           1  read in
    real space projection operators read in
  non local Contribution for L=           2  read in
    real space projection operators read in
  non local Contribution for L=           2  read in
    real space projection operators read in
  non local Contribution for L=           0  read in
    real space projection operators read in
  non local Contribution for L=           0  read in
    real space projection operators read in
    PAW grid and wavefunctions read in
 
   number of l-projection  operators is LMAX  =           6
   number of lm-projection operators is LMMAX =          18
 
 POTCAR:     PAW_PBE Fe_pv 02Aug2007              
   SHA256 =  5d22e414b1f82158bf2c7ecb8b97b28fd0923e48cadc1c3bf74d524558f5dd32 Fe
   COPYR  = (c) Copyright 02Aug2007 Georg Kresse                                
   COPYR  = This file is part of the software VASP. Any use, copying, and all ot
   COPYR  = If you do not have a valid VASP license, you may not use, copy or di
   VRHFIN =Fe:  3pd7s1                                                          
   LEXCH  = PE                                                                  
   EATOM  =  2457.4239 eV,  180.6156 Ry                                         
                                                                                
   TITEL  = PAW_PBE Fe_pv 02Aug2007                                             
   LULTRA =        F    use ultrasoft PP ?                                      
   IUNSCR =        1    unscreen: 0-lin 1-nonlin 2-no                           
   RPACOR =    1.750    partial core radius                                     
   POMASS =   55.847; ZVAL   =   14.000    mass and valenz                      
   RCORE  =    2.200    outmost cutoff radius                                   
   RWIGS  =    2.200; RWIGS  =    1.164    wigner-seitz radius (au A)           
   ENMAX  =  293.238; ENMIN  =  219.928 eV                                      
   ICORE  =        3    local potential                                         
   LCOR   =        T    correct aug charges                                     
   LPAW   =        T    paw PP                                                  
   EAUG   =  578.342                                                            
   DEXC   =    0.000                                                            
   RMAX   =    2.249    core radius for proj-oper                               
   RAUG   =    1.300    factor for augmentation sphere                          
   RDEP   =    2.296    radius for radial grids                                 
   RDEPT  =    1.766    core radius for aug-charge                              
                                                                                
   Atomic configuration                                                         
    8 entries                                                                   
     n  l   j            E        occ.                                          
     1  0  0.50     -6993.8440   2.0000                                         
     2  0  0.50      -814.6047   2.0000                                         
     2  1  1.50      -693.3689   6.0000                                         
     3  0  0.50       -89.4732   2.0000                                         
     3  1  1.50       -55.6373   6.0000                                         
     3  2  2.50        -3.8151   7.0000                                         
     4  0  0.50        -4.2551   1.0000                                         
     4  3  2.50        -1.3606   0.0000                                         
   Description                                                                  
     l       E           TYP  RCUT    TYP  RCUT                                 
     1    -55.6372668     23  2.000                                             
     1     -5.4423304     23  2.000                                             
     2     -3.8151096     23  2.200                                             
     2     -5.1756922     23  2.200                                             
     0     -4.2550951     23  2.200                                             
     0     27.2116520     23  2.200                                             
     3     -1.3605826     23  2.200                                             
  local pseudopotential read in
  partial core-charges read in
  partial kinetic energy density read in
  atomic valenz-charges read in
  non local Contribution for L=           1  read in
    real space projection operators read in
  non local Contribution for L=           1  read in
    real space projection operators read in
  non local Contribution for L=           2  read in
    real space projection operators read in
  non local Contribution for L=           2  read in
    real space projection operators read in
  non local Contribution for L=           0  read in
    real space projection operators read in
  non local Contribution for L=           0  read in
    real space projection operators read in
    PAW grid and wavefunctions read in
 
   number of l-projection  operators is LMAX  =           6
   number of lm-projection operators is LMMAX =          18
 

 ----------------------------------------------------------------------------- 
|                                                                             |
|  ADVICE TO THIS USER RUNNING 'VASP/VAMP'   (HEAR YOUR MASTER'S VOICE ...):  |
|                                                                             |
|      You have a (more or less) 'large supercell' and for larger cells       |
|      it might be more efficient to use real space projection opertators     |
|      So try LREAL= Auto  in the INCAR   file.                               |
|      Mind:          For very  accurate calculation you might also keep the  |
|      reciprocal projection scheme          (i.e. LREAL=.FALSE.)             |
|                                                                             |
 ----------------------------------------------------------------------------- 


 ----------------------------------------------------------------------------- 
|                                                                             |
|  ADVICE TO THIS USER RUNNING 'VASP/VAMP'   (HEAR YOUR MASTER'S VOICE ...):  |
|                                                                             |
|      You enforced a specific xc-type in the INCAR file,                     |
|      a different type was found on the POTCAR file                          |
|          I HOPE YOU KNOW, WHAT YOU ARE  DOING                               |
|                                                                             |
 ----------------------------------------------------------------------------- 

  PAW_PBE S 06Sep2000                   :
 energy of atom  1       EATOM= -276.8230
 kinetic energy error for atom=    0.0007 (will be added to EATOM!!)
   PAW_PBE Cu_pv 06Sep2000              :
 energy of atom  2       EATOM=-4120.1201
 kinetic energy error for atom=    0.0094 (will be added to EATOM!!)
   PAW_PBE Fe_pv 02Aug2007              :
 energy of atom  3       EATOM=-2457.4239
 kinetic energy error for atom=    0.0025 (will be added to EATOM!!)
 
 
 POSCAR: Fe16 Cu16 S32                           
  positions in direct lattice
  No initial velocities read in
 exchange correlation table for  LEXCH =       14
   RHO(1)=    0.500       N(1)  =     2000
   RHO(2)=  100.500       N(2)  =     4000
 


--------------------------------------------------------------------------------------------------------


 ion  position               nearest neighbor table
   1  0.126  0.123  0.125-  41 2.26  37 2.26  61 2.27  49 2.28
   2  0.626  0.123  0.125-  42 2.26  38 2.26  62 2.27  50 2.28
   3  0.126  0.623  0.125-  43 2.26  39 2.26  63 2.27  51 2.28
   4  0.626  0.623  0.125-  44 2.26  40 2.26  64 2.27  52 2.28
   5  0.374  0.373  0.125-  39 2.26  41 2.26  52 2.27  62 2.28
   6  0.874  0.373  0.125-  40 2.26  42 2.26  51 2.27  61 2.28
   7  0.374  0.873  0.125-  37 2.26  43 2.26  50 2.27  64 2.28
   8  0.874  0.873  0.125-  38 2.26  44 2.26  49 2.27  63 2.28
   9  0.125  0.373  0.875-  41 2.26  45 2.26  51 2.27  55 2.27
  10  0.625  0.373  0.875-  42 2.26  46 2.26  52 2.27  56 2.27
  11  0.125  0.873  0.875-  43 2.26  47 2.26  49 2.27  53 2.27
  12  0.625  0.873  0.875-  44 2.26  48 2.26  50 2.27  54 2.27
  13  0.375  0.125  0.875-  41 2.26  46 2.26  50 2.28  53 2.28
  14  0.875  0.125  0.875-  42 2.26  45 2.26  49 2.28  54 2.28
  15  0.375  0.625  0.875-  43 2.26  48 2.26  52 2.28  55 2.28
  16  0.875  0.625  0.875-  44 2.26  47 2.26  51 2.28  56 2.28
  17  0.124  0.123  0.625-  45 2.26  33 2.26  57 2.27  53 2.28
  18  0.624  0.123  0.625-  46 2.26  34 2.26  58 2.27  54 2.28
  19  0.124  0.623  0.625-  47 2.26  35 2.26  59 2.27  55 2.28
  20  0.624  0.623  0.625-  48 2.26  36 2.26  60 2.27  56 2.28
  21  0.376  0.373  0.625-  36 2.26  46 2.26  55 2.27  57 2.28
  22  0.876  0.373  0.625-  35 2.26  45 2.26  56 2.27  58 2.28
  23  0.376  0.873  0.625-  34 2.26  48 2.26  53 2.27  59 2.28
  24  0.876  0.873  0.625-  33 2.26  47 2.26  54 2.27  60 2.28
  25  0.375  0.123  0.375-  34 2.26  37 2.26  57 2.27  62 2.27
  26  0.875  0.123  0.375-  33 2.26  38 2.26  58 2.27  61 2.27
  27  0.375  0.623  0.375-  36 2.26  39 2.26  59 2.27  64 2.27
  28  0.875  0.623  0.375-  35 2.26  40 2.26  60 2.27  63 2.27
  29  0.125  0.375  0.375-  35 2.26  39 2.26  57 2.28  61 2.28
  30  0.625  0.375  0.375-  36 2.26  40 2.26  58 2.28  62 2.28
  31  0.125  0.875  0.375-  33 2.26  37 2.26  59 2.28  63 2.28
  32  0.625  0.875  0.375-  34 2.26  38 2.26  60 2.28  64 2.28
  33  0.999  0.002  0.500-  24 2.26  31 2.26  26 2.26  17 2.26
  34  0.499  0.002  0.500-  23 2.26  32 2.26  25 2.26  18 2.26
  35  0.999  0.502  0.500-  22 2.26  29 2.26  28 2.26  19 2.26
  36  0.499  0.502  0.500-  21 2.26  30 2.26  27 2.26  20 2.26
  37  0.251  0.002  0.250-   7 2.26  31 2.26  25 2.26   1 2.26
  38  0.751  0.002  0.250-   8 2.26  32 2.26  26 2.26   2 2.26
  39  0.251  0.502  0.250-   5 2.26  29 2.26  27 2.26   3 2.26
  40  0.751  0.502  0.250-   6 2.26  30 2.26  28 2.26   4 2.26
  41  0.249  0.252  0.000-   1 2.26  13 2.26   9 2.26   5 2.26
  42  0.749  0.252  0.000-   2 2.26  14 2.26  10 2.26   6 2.26
  43  0.249  0.752  0.000-   3 2.26  15 2.26  11 2.26   7 2.26
  44  0.749  0.752  0.000-   4 2.26  16 2.26  12 2.26   8 2.26
  45  0.001  0.252  0.750-  17 2.26  14 2.26   9 2.26  22 2.26
  46  0.501  0.252  0.750-  18 2.26  13 2.26  10 2.26  21 2.26
  47  0.001  0.752  0.750-  19 2.26  16 2.26  11 2.26  24 2.26
  48  0.501  0.752  0.750-  20 2.26  15 2.26  12 2.26  23 2.26
  49  1.000  0.001  0.000-   8 2.27  11 2.27  14 2.28   1 2.28
  50  0.500  0.001  0.000-   7 2.27  12 2.27  13 2.28   2 2.28
  51  1.000  0.501  0.000-   6 2.27   9 2.27  16 2.28   3 2.28
  52  0.500  0.501  0.000-   5 2.27  10 2.27  15 2.28   4 2.28
  53  0.250  0.001  0.750-  23 2.27  11 2.27  13 2.28  17 2.28
  54  0.750  0.001  0.750-  24 2.27  12 2.27  14 2.28  18 2.28
  55  0.250  0.501  0.750-  21 2.27   9 2.27  15 2.28  19 2.28
  56  0.750  0.501  0.750-  22 2.27  10 2.27  16 2.28  20 2.28
  57  0.250  0.251  0.500-  17 2.27  25 2.27  29 2.28  21 2.28
  58  0.750  0.251  0.500-  18 2.27  26 2.27  30 2.28  22 2.28
  59  0.250  0.751  0.500-  19 2.27  27 2.27  31 2.28  23 2.28
  60  0.750  0.751  0.500-  20 2.27  28 2.27  32 2.28  24 2.28
  61  0.000  0.251  0.250-   1 2.27  26 2.27  29 2.28   6 2.28
  62  0.500  0.251  0.250-   2 2.27  25 2.27  30 2.28   5 2.28
  63  0.000  0.751  0.250-   3 2.27  28 2.27  31 2.28   8 2.28
  64  0.500  0.751  0.250-   4 2.27  27 2.27  32 2.28   7 2.28
 
  LATTYP: Found a simple monoclinic cell.
 ALAT       =    15.0024469486
 B/A-ratio  =     0.7010075780
 C/A-ratio  =     1.5721846027
 COS(beta)  =    -0.9509793927
  
  Lattice vectors:
  
 A1 = ( -10.6600060000,   0.0000000000, -10.5564050000)
 A2 = (   0.0000000000, -10.5168290000,   0.0000000000)
 A3 = (  10.8053620000,   0.0000000000,  20.9659870000)


Analysis of symmetry for initial positions (statically):
=====================================================================
 Subroutine PRICEL returns following result:
 
  LATTYP: Found a base centered monoclinic cell.
 ALAT       =    11.5312032183
 B/A-ratio  =     0.4560161156
 C/A-ratio  =     0.9028196456
 COS(beta)  =    -0.8098571944
  
  Lattice vectors:
  
 A1 = (  -2.5559845000,  -2.6292072500,   5.1680852500)
 A2 = (  -2.5559845000,   2.6292072500,   5.1680852500)
 A3 = (  -0.1453560000,   0.0000000000, -10.4095820000)
 
   8 primitive cells build up your supercell.
 

 Routine SETGRP: Setting up the symmetry group for a 
 simple monoclinic supercell.


 Subroutine GETGRP returns: Found  2 space group operations
 (whereof  1 operations were pure point group operations)
 out of a pool of  4 trial point group operations.


The static configuration has the point symmetry C_1 .
 The point group associated with its full space group is C_2 .


Analysis of symmetry for dynamics (positions and initial velocities):
=====================================================================
 Subroutine PRICEL returns following result:
 
  LATTYP: Found a base centered monoclinic cell.
 ALAT       =    11.5312032183
 B/A-ratio  =     0.4560161156
 C/A-ratio  =     0.9028196456
 COS(beta)  =    -0.8098571944
  
  Lattice vectors:
  
 A1 = (  -2.5559845000,  -2.6292072500,   5.1680852500)
 A2 = (  -2.5559845000,   2.6292072500,   5.1680852500)
 A3 = (  -0.1453560000,   0.0000000000, -10.4095820000)
 
   8 primitive cells build up your supercell.
 

 Routine SETGRP: Setting up the symmetry group for a 
 simple monoclinic supercell.


 Subroutine GETGRP returns: Found  2 space group operations
 (whereof  1 operations were pure point group operations)
 out of a pool of  4 trial point group operations.


The dynamic configuration has the point symmetry C_1 .
 The point group associated with its full space group is C_2 .


Analysis of structural, dynamic, and magnetic symmetry:
=====================================================================
 Subroutine PRICEL returns following result:
 
  LATTYP: Found a base centered monoclinic cell.
 ALAT       =    11.5312032183
 B/A-ratio  =     0.4560161156
 C/A-ratio  =     0.9028196456
 COS(beta)  =    -0.8098571944
  
  Lattice vectors:
  
 A1 = (  -2.5559845000,  -2.6292072500,   5.1680852500)
 A2 = (  -2.5559845000,   2.6292072500,   5.1680852500)
 A3 = (  -0.1453560000,   0.0000000000, -10.4095820000)
 
   8 primitive cells build up your supercell.
 

 Routine SETGRP: Setting up the symmetry group for a 
 simple monoclinic supercell.


 Subroutine GETGRP returns: Found  2 space group operations
 (whereof  1 operations were pure point group operations)
 out of a pool of  4 trial point group operations.


The magnetic configuration has the point symmetry C_1 .
 The point group associated with its full space group is C_2 .


 Subroutine INISYM returns: Found  2 space group operations
 (whereof  1 operations are pure point group operations),
 and found     8 'primitive' translations

 
 
 KPOINTS: Automatic mesh                          

Automatic generation of k-mesh.
Space group operators:
 irot       det(A)        alpha          n_x          n_y          n_z        tau_x        tau_y        tau_z
    1     1.000000     0.000001     1.000000     0.000000     0.000000     0.000000     0.000000     0.000000
    2     1.000000   180.000000     0.000000     1.000000     0.000000    -0.250000    -0.000000    -0.250000
 
 Subroutine IBZKPT returns following result:
 ===========================================
 
 Found      8 irreducible k-points:
 
 Following reciprocal coordinates:
            Coordinates               Weight
  0.000000  0.000000  0.000000      1.000000
  0.500000  0.000000  0.000000      1.000000
  0.000000  0.500000  0.000000      1.000000
  0.500000  0.500000  0.000000      1.000000
 -0.000000  0.000000  0.500000      1.000000
  0.500000  0.000000  0.500000      1.000000
 -0.000000  0.500000  0.500000      1.000000
  0.500000  0.500000  0.500000      1.000000
 
 Following cartesian coordinates:
            Coordinates               Weight
  0.000000  0.000000  0.000000      1.000000
  0.047562  0.000000 -0.000664      1.000000
  0.000000  0.047543  0.000000      1.000000
  0.047562  0.047543 -0.000664      1.000000
 -0.000671  0.000000  0.048042      1.000000
  0.046891  0.000000  0.047378      1.000000
 -0.000671  0.047543  0.048042      1.000000
  0.046891  0.047543  0.047378      1.000000
 
 TETIRR: Found     24 inequivalent tetrahedra from       48
 
 Subroutine IBZKPT_HF returns following result:
 ==============================================
 
 Found      8 k-points in 1st BZ
 the following      8 k-points will be used (e.g. in the exchange kernel)
 Following reciprocal coordinates:   # in IRBZ
  0.000000  0.000000  0.000000    0.12500000   1 t-inv F
  0.500000  0.000000  0.000000    0.12500000   2 t-inv F
  0.000000  0.500000  0.000000    0.12500000   3 t-inv F
  0.500000  0.500000  0.000000    0.12500000   4 t-inv F
 -0.000000  0.000000  0.500000    0.12500000   5 t-inv F
  0.500000  0.000000  0.500000    0.12500000   6 t-inv F
 -0.000000  0.500000  0.500000    0.12500000   7 t-inv F
  0.500000  0.500000  0.500000    0.12500000   8 t-inv F


--------------------------------------------------------------------------------------------------------




 Dimension of arrays:
   k-points           NKPTS =      8   k-points in BZ     NKDIM =      8   number of bands    NBANDS=    512
   number of dos      NEDOS =    301   number of ions     NIONS =     64
   non local maximal  LDIM  =      6   non local SUM 2l+1 LMDIM =     18
   total plane-waves  NPLWV = 829440
   max r-space proj   IRMAX =      1   max aug-charges    IRDMAX=  22903
   dimension x,y,z NGX =    96 NGY =   96 NGZ =   90
   dimension x,y,z NGXF=   192 NGYF=  192 NGZF=  180
   support grid    NGXF=   192 NGYF=  192 NGZF=  180
   ions per type =              32  16  16
   NGX,Y,Z   is equivalent  to a cutoff of  15.18, 15.18, 14.37 a.u.
   NGXF,Y,Z  is equivalent  to a cutoff of  30.35, 30.35, 28.74 a.u.

 SYSTEM =  CuFeS2                                  
 POSCAR =  Fe16 Cu16 S32                           

 Startparameter for this run:
   NWRITE =      2    write-flag & timer
   PREC   = accura    normal or accurate (medium, high low for compatibility)
   ISTART =      0    job   : 0-new  1-cont  2-samecut
   ICHARG =      1    charge: 1-file 2-atom 10-const
   ISPIN  =      2    spin polarized calculation?
   LNONCOLLINEAR =      F non collinear calculations
   LSORBIT =      F    spin-orbit coupling
   INIWAV =      1    electr: 0-lowe 1-rand  2-diag
   LASPH  =      F    aspherical Exc in radial PAW
   METAGGA=      F    non-selfconsistent MetaGGA calc.

 Electronic Relaxation 1
   ENCUT  =  700.0 eV  51.45 Ry    7.17 a.u.  22.69 22.69 22.46*2*pi/ulx,y,z
   ENINI  =  700.0     initial cutoff
   ENAUG  =  758.2 eV  augmentation charge cutoff
   NELM   =    500;   NELMIN=  2; NELMDL= -5     # of ELM steps 
   EDIFF  = 0.1E-07   stopping-criterion for ELM
   LREAL  =      F    real-space projection
   NLSPLINE    = F    spline interpolate recip. space projectors
   LCOMPAT=      F    compatible to vasp.4.4
   GGA_COMPAT  = T    GGA compatible to vasp.4.4-vasp.4.6
   LMAXPAW     = -100 max onsite density
   LMAXMIX     =    4 max onsite mixed and CHGCAR
   VOSKOWN=      0    Vosko Wilk Nusair interpolation
   ROPT   =    0.00000   0.00000   0.00000
 Ionic relaxation
   EDIFFG = -.1E-04   stopping-criterion for IOM
   NSW    =      0    number of steps for IOM
   NBLOCK =      1;   KBLOCK =      1    inner block; outer block 
   IBRION =     -1    ionic relax: 0-MD 1-quasi-New 2-CG
   NFREE  =      0    steps in history (QN), initial steepest desc. (CG)
   ISIF   =      2    stress and relaxation
   IWAVPR =     10    prediction:  0-non 1-charg 2-wave 3-comb
   ISYM   =      2    0-nonsym 1-usesym 2-fastsym
   LCORR  =      T    Harris-Foulkes like correction to forces

   POTIM  = 0.5000    time-step for ionic-motion
   TEIN   =    0.0    initial temperature
   TEBEG  =    0.0;   TEEND  =   0.0 temperature during run
   SMASS  =  -3.00    Nose mass-parameter (am)
   estimated Nose-frequenzy (Omega)   =  0.10E-29 period in steps =****** mass=  -0.253E-26a.u.
   SCALEE = 1.0000    scale energy and forces
   NPACO  =    256;   APACO  = 16.0  distance and # of slots for P.C.
   PSTRESS=    0.0 pullay stress

  Mass of Ions in am
   POMASS =  32.07 63.55 55.85
  Ionic Valenz
   ZVAL   =   6.00 17.00 14.00
  Atomic Wigner-Seitz radii
   RWIGS  =  -1.00 -1.00 -1.00
  virtual crystal weights 
   VCA    =   1.00  1.00  1.00
   NELECT =     688.0000    total number of electrons
   NUPDOWN=      -1.0000    fix difference up-down

 DOS related values:
   EMIN   =  10.00;   EMAX   =-10.00  energy-range for DOS
   EFERMI =   0.00
   ISMEAR =    -5;   SIGMA  =   0.03  broadening in eV -4-tet -1-fermi 0-gaus

 Electronic relaxation 2 (details)
   IALGO  =     38    algorithm
   LDIAG  =      T    sub-space diagonalisation (order eigenvalues)
   LSUBROT=      F    optimize rotation matrix (better conditioning)
   TURBO    =      0    0=normal 1=particle mesh
   IRESTART =      0    0=no restart 2=restart with 2 vectors
   NREBOOT  =      0    no. of reboots
   NMIN     =      0    reboot dimension
   EREF     =   0.00    reference energy to select bands
   IMIX   =      4    mixing-type and parameters
     AMIX     =   0.40;   BMIX     =  1.00
     AMIX_MAG =   1.60;   BMIX_MAG =  1.00
     AMIN     =   0.10
     WC   =   100.;   INIMIX=   1;  MIXPRE=   1;  MAXMIX= -45

 Intra band minimization:
   WEIMIN = 0.0000     energy-eigenvalue tresh-hold
   EBREAK =  0.49E-11  absolut break condition
   DEPER  =   0.30     relativ break condition  

   TIME   =   0.40     timestep for ELM

  volume/ion in A,a.u.               =      17.98       121.35
  Fermi-wavevector in a.u.,A,eV,Ry     =   1.379097  2.606116 25.877047  1.901909
  Thomas-Fermi vector in A             =   2.504098
 
 Write flags
   LWAVE        =      T    write WAVECAR
   LDOWNSAMPLE  =      F    k-point downsampling of WAVECAR
   LCHARG       =      T    write CHGCAR
   LVTOT        =      F    write LOCPOT, total local potential
   LVHAR        =      F    write LOCPOT, Hartree potential only
   LELF         =      F    write electronic localiz. function (ELF)
   LORBIT       =     11    0 simple, 1 ext, 2 COOP (PROOUT), +10 PAW based schemes


 Dipole corrections
   LMONO  =      F    monopole corrections only (constant potential shift)
   LDIPOL =      F    correct potential (dipole corrections)
   IDIPOL =      0    1-x, 2-y, 3-z, 4-all directions 
   EPSILON=  1.0000000 bulk dielectric constant

 LDA+U is selected, type is set to LDAUTYPE =  2
   angular momentum for each species LDAUL =     2    2    2
   U (eV)           for each species LDAUU =   0.0  0.1  4.7
   J (eV)           for each species LDAUJ =   0.0  0.0  0.0
 Exchange correlation treatment:
   GGA     =    PS    GGA type
   LEXCH   =    14    internal setting for exchange type
   VOSKOWN=      0    Vosko Wilk Nusair interpolation
   LHFCALC =     F    Hartree Fock is set to
   LHFONE  =     F    Hartree Fock one center treatment
   AEXX    =    0.0000 exact exchange contribution

 Linear response parameters
   LEPSILON=     F    determine dielectric tensor
   LRPA    =     F    only Hartree local field effects (RPA)
   LNABLA  =     F    use nabla operator in PAW spheres
   LVEL    =     F    velocity operator in full k-point grid
   LINTERFAST=   F  fast interpolation
   KINTER  =     0    interpolate to denser k-point grid
   CSHIFT  =0.1000    complex shift for real part using Kramers Kronig
   OMEGAMAX=  -1.0    maximum frequency
   DEG_THRESHOLD= 0.2000000E-02 threshold for treating states as degnerate
   RTIME   =   -0.100 relaxation time in fs
  (WPLASMAI=    0.000 imaginary part of plasma frequency in eV, 0.658/RTIME)
   DFIELD  = 0.0000000 0.0000000 0.0000000 field for delta impulse in time
 
 Orbital magnetization related:
   ORBITALMAG=     F  switch on orbital magnetization
   LCHIMAG   =     F  perturbation theory with respect to B field
   DQ        =  0.001000  dq finite difference perturbation B field
   LLRAUG    =     F  two centre corrections for induced B field

 PEAD related settings:
   LPEAD      =     T    switch on PEAD
   IPEAD      =     4    finite difference order for dpsi/dk
   LCALCPOL   =     T    calculate macroscopic polarization
   LCALCEPS   =     F    calculate dielectric tensor
   EFIELD_PEAD=    0.0000    0.0000    0.0000
   SKIP_EDOTP =     F
   LRPA       =     F
   SKIP_SCF   =     F


--------------------------------------------------------------------------------------------------------


 Static calculation
 charge density and potential will be updated during run
 spin polarized calculation
 Variant of blocked Davidson
 Davidson routine will perform the subspace rotation
 perform sub-space diagonalisation
    after iterative eigenvector-optimisation
 modified Broyden-mixing scheme, WC =      100.0
 initial mixing is a Kerker type mixing with AMIX =  0.4000 and BMIX =      1.0000
 Hartree-type preconditioning will be used
 using additional bands          168
 reciprocal scheme for non local part
 use partial core corrections
 calculate Harris-corrections to forces 
   (improved forces if not selfconsistent)
 use gradient corrections 
 use of overlap-Matrix (Vanderbilt PP)
 Fermi weights with tetrahedron method with Bloechl corrections


--------------------------------------------------------------------------------------------------------


  energy-cutoff  :      700.00
  volume of cell :     1150.88
      direct lattice vectors                 reciprocal lattice vectors
    10.514650000  0.000000000  0.146823000     0.095123948  0.000000000 -0.001328280
     0.000000000 10.516829000  0.000000000     0.000000000  0.095085696  0.000000000
     0.145356000  0.000000000 10.409582000    -0.001341685  0.000000000  0.096084072

  length of vectors
    10.515675043 10.516829000 10.410596802     0.095133222  0.095085696  0.096093439


 
 k-points in units of 2pi/SCALE and weight: Automatic mesh                          
   0.00000000  0.00000000  0.00000000       0.125
   0.04756197  0.00000000 -0.00066414       0.125
   0.00000000  0.04754285  0.00000000       0.125
   0.04756197  0.04754285 -0.00066414       0.125
  -0.00067084  0.00000000  0.04804204       0.125
   0.04689113  0.00000000  0.04737790       0.125
  -0.00067084  0.04754285  0.04804204       0.125
   0.04689113  0.04754285  0.04737790       0.125
 
 k-points in reciprocal lattice and weights: Automatic mesh                          
   0.00000000  0.00000000  0.00000000       0.125
   0.50000000  0.00000000  0.00000000       0.125
   0.00000000  0.50000000  0.00000000       0.125
   0.50000000  0.50000000  0.00000000       0.125
  -0.00000000  0.00000000  0.50000000       0.125
   0.50000000  0.00000000  0.50000000       0.125
  -0.00000000  0.50000000  0.50000000       0.125
   0.50000000  0.50000000  0.50000000       0.125
 
 position of ions in fractional coordinates (direct lattice) 
   0.12617400  0.12326900  0.12528000
   0.62617400  0.12326900  0.12528000
   0.12617400  0.62326900  0.12528000
   0.62617400  0.62326900  0.12528000
   0.37382600  0.37326900  0.12472000
   0.87382600  0.37326900  0.12472000
   0.37382600  0.87326900  0.12472000
   0.87382600  0.87326900  0.12472000
   0.12500000  0.37262500  0.87500000
   0.62500000  0.37262500  0.87500000
   0.12500000  0.87262500  0.87500000
   0.62500000  0.87262500  0.87500000
   0.37500000  0.12488600  0.87500000
   0.87500000  0.12488600  0.87500000
   0.37500000  0.62488600  0.87500000
   0.87500000  0.62488600  0.87500000
   0.12382600  0.12326900  0.62472000
   0.62382600  0.12326900  0.62472000
   0.12382600  0.62326900  0.62472000
   0.62382600  0.62326900  0.62472000
   0.37617400  0.37326900  0.62528000
   0.87617400  0.37326900  0.62528000
   0.37617400  0.87326900  0.62528000
   0.87617400  0.87326900  0.62528000
   0.37500000  0.12262500  0.37500000
   0.87500000  0.12262500  0.37500000
   0.37500000  0.62262500  0.37500000
   0.87500000  0.62262500  0.37500000
   0.12500000  0.37488600  0.37500000
   0.62500000  0.37488600  0.37500000
   0.12500000  0.87488600  0.37500000
   0.62500000  0.87488600  0.37500000
   0.99949600  0.00151900  0.50000300
   0.49949600  0.00151900  0.50000300
   0.99949600  0.50151900  0.50000300
   0.49949600  0.50151900  0.50000300
   0.25050400  0.00151900  0.24999700
   0.75050400  0.00151900  0.24999700
   0.25050400  0.50151900  0.24999700
   0.75050400  0.50151900  0.24999700
   0.24949600  0.25151900  0.00000300
   0.74949600  0.25151900  0.00000300
   0.24949600  0.75151900  0.00000300
   0.74949600  0.75151900  0.00000300
   0.00050400  0.25151900  0.74999700
   0.50050400  0.25151900  0.74999700
   0.00050400  0.75151900  0.74999700
   0.50050400  0.75151900  0.74999700
   0.99975000  0.00145700  0.00004600
   0.49975000  0.00145700  0.00004600
   0.99975000  0.50145700  0.00004600
   0.49975000  0.50145700  0.00004600
   0.25025000  0.00145700  0.74995400
   0.75025000  0.00145700  0.74995400
   0.25025000  0.50145700  0.74995400
   0.75025000  0.50145700  0.74995400
   0.24975000  0.25145700  0.50004600
   0.74975000  0.25145700  0.50004600
   0.24975000  0.75145700  0.50004600
   0.74975000  0.75145700  0.50004600
   0.00025000  0.25145700  0.24995400
   0.50025000  0.25145700  0.24995400
   0.00025000  0.75145700  0.24995400
   0.50025000  0.75145700  0.24995400
 
 position of ions in cartesian coordinates  (Angst):
   1.34488565  1.29639899  1.32263768
   6.60221065  1.29639899  1.39604918
   1.34488565  6.55481349  1.32263768
   6.60221065  6.55481349  1.39604918
   3.94877835  3.92560624  1.35316932
   9.20610335  3.92560624  1.42658082
   3.94877835  9.18402074  1.35316932
   9.20610335  9.18402074  1.42658082
   1.44151775  3.91883341  9.12673713
   6.69884275  3.91883341  9.20014863
   1.44151775  9.17724791  9.12673713
   6.69884275  9.17724791  9.20014863
   4.07018025  1.31340471  9.16344287
   9.32750525  1.31340471  9.23685438
   4.07018025  6.57181921  9.16344287
   9.32750525  6.57181921  9.23685438
   1.39279385  1.29639899  6.52125457
   6.65011885  1.29639899  6.59466607
   1.39279385  6.55481349  6.52125457
   6.65011885  6.55481349  6.59466607
   4.04622615  3.92560624  6.56413443
   9.30355115  3.92560624  6.63754593
   4.04622615  9.18402074  6.56413443
   9.30355115  9.18402074  6.63754593
   3.99750225  1.28962616  3.95865188
   9.25482725  1.28962616  4.03206337
   3.99750225  6.54804066  3.95865188
   9.25482725  6.54804066  4.03206337
   1.36883975  3.94261196  3.92194613
   6.62616475  3.94261196  3.99535763
   1.36883975  9.20102646  3.92194613
   6.62616475  9.20102646  3.99535763
  10.58202905  0.01597506  5.35157123
   5.32470405  0.01597506  5.27815973
  10.58202905  5.27438956  5.35157123
   5.32470405  5.27438956  5.27815973
   2.67030045  0.01597506  2.63914402
   7.92762545  0.01597506  2.71255552
   2.67030045  5.27438956  2.63914402
   7.92762545  5.27438956  2.71255552
   2.62336355  2.64518231  0.03666298
   7.88068855  2.64518231  0.11007448
   2.62336355  7.90359681  0.03666298
   7.88068855  7.90359681  0.11007448
   0.11431595  2.64518231  7.80722927
   5.37164095  2.64518231  7.88064077
   0.11431595  7.90359681  7.80722927
   5.37164095  7.90359681  7.88064077
  10.51202802  0.01532302  0.14726514
   5.25470302  0.01532302  0.07385364
  10.51202802  5.27373752  0.14726514
   5.25470302  5.27373752  0.07385364
   2.74030148  0.01532302  7.84345011
   7.99762648  0.01532302  7.91686161
   2.74030148  5.27373752  7.84345011
   7.99762648  5.27373752  7.91686161
   2.69871852  2.64453027  5.24193889
   7.95604352  2.64453027  5.31535039
   2.69871852  7.90294477  5.24193889
   7.95604352  7.90294477  5.31535039
   0.03896098  2.64453027  2.60195336
   5.29628598  2.64453027  2.67536486
   0.03896098  7.90294477  2.60195336
   5.29628598  7.90294477  2.67536486
 


--------------------------------------------------------------------------------------------------------


 k-point  1 :   0.0000 0.0000 0.0000  plane waves:   48417
 k-point  2 :   0.5000 0.0000 0.0000  plane waves:   48382
 k-point  3 :   0.0000 0.5000 0.0000  plane waves:   48450
 k-point  4 :   0.5000 0.5000 0.0000  plane waves:   48428
 k-point  5 :  -0.0000 0.0000 0.5000  plane waves:   48376
 k-point  6 :   0.5000 0.0000 0.5000  plane waves:   48420
 k-point  7 :  -0.0000 0.5000 0.5000  plane waves:   48352
 k-point  8 :   0.5000 0.5000 0.5000  plane waves:   48336

 maximum and minimum number of plane-waves per node :     48450    48336

 maximum number of plane-waves:     48450
 maximum index in each direction: 
   IXMAX=   22   IYMAX=   22   IZMAX=   22
   IXMIN=  -23   IYMIN=  -23   IZMIN=  -22


 serial   3D FFT for wavefunctions
 parallel 3D FFT for charge:
    minimum data exchange during FFTs selected (reduces bandwidth)


 total amount of memory used by VASP MPI-rank0   349631. kBytes
=======================================================================

   base      :      30000. kBytes
   nonl-proj :     217907. kBytes
   fftplans  :       4588. kBytes
   grid      :      69719. kBytes
   one-center:       1990. kBytes
   wavefun   :      25427. kBytes
 
     INWAV:  cpu time    0.0000: real time    0.0000
 Broyden mixing: mesh for mixing (old mesh)
   NGX = 45   NGY = 45   NGZ = 45
  (NGX  =192   NGY  =192   NGZ  =180)
  gives a total of  91125 points

 initial charge density was supplied:
 number of electron     688.0000287 magnetization       0.0000000
 keeping initial charge density in first step


--------------------------------------------------------------------------------------------------------


 Maximum index for augmentation-charges          897 (set IRDMAX)


--------------------------------------------------------------------------------------------------------


 First call to EWALD:  gamma=   0.169
 Maximum number of real-space cells 3x 3x 3
 Maximum number of reciprocal cells 3x 3x 3

    FEWALD:  cpu time    0.0026: real time    0.0026


--------------------------------------- Iteration      1(   1)  ---------------------------------------


    POTLOK:  cpu time    0.3233: real time    0.3612
    SETDIJ:  cpu time    0.0144: real time    0.0144
     EDDAV:  cpu time   84.0420: real time   84.7071
 BZINTS: Fermi energy: 14.980876;688.000000 electrons
         Band energy:***********;  BLOECHL correction: -0.016507
       DOS:  cpu time    0.0412: real time    0.0414
    --------------------------------------------
      LOOP:  cpu time   84.4210: real time   85.1242

 eigenvalue-minimisations  : 16384
 total energy-change (2. order) : 0.6052795E+04  (-0.5158363E+05)
 number of electron     688.0000287 magnetization       0.0000000
 augmentation part      688.0000287 magnetization       0.0000000

 Free energy of the ion-electron system (eV)
  ---------------------------------------------------
  alpha Z        PSCENC =      2355.72938027
  Ewald energy   TEWEN  =    -62466.84185768
  -Hartree energ DENC   =    -42950.04897191
  -exchange      EXHF   =         0.00000000
  -V(xc)+E(xc)   XCENC  =      3286.32403884
  PAW double counting   =    112259.81449706  -115953.62387450
  entropy T*S    EENTRO =         0.00000000
  eigenvalues    EBANDS =     -4498.62372443
  atomic energy  EATOM  =    114020.06510763
  Solvation  Ediel_sol  =         0.00000000
  ---------------------------------------------------
  free energy    TOTEN  =      6052.79459528 eV

  energy without entropy =     6052.79459528  energy(sigma->0) =     6052.79459528


--------------------------------------------------------------------------------------------------------




--------------------------------------- Iteration      1(   2)  ---------------------------------------


     EDDAV:  cpu time   99.8617: real time  100.6011
 BZINTS: Fermi energy:  5.467877;688.000000 electrons
         Band energy:***********;  BLOECHL correction:  0.000000
       DOS:  cpu time    0.0066: real time    0.0066
    --------------------------------------------
      LOOP:  cpu time   99.8682: real time  100.6076

 eigenvalue-minimisations  : 18176
 total energy-change (2. order) :-0.6131688E+04  (-0.6022083E+04)
 number of electron     688.0000287 magnetization       0.0000000
 augmentation part      688.0000287 magnetization       0.0000000

 Free energy of the ion-electron system (eV)
  ---------------------------------------------------
  alpha Z        PSCENC =      2355.72938027
  Ewald energy   TEWEN  =    -62466.84185768
  -Hartree energ DENC   =    -42950.04897191
  -exchange      EXHF   =         0.00000000
  -V(xc)+E(xc)   XCENC  =      3286.32403884
  PAW double counting   =    112259.81449706  -115953.62387450
  entropy T*S    EENTRO =         0.00000000
  eigenvalues    EBANDS =    -10630.31136637
  atomic energy  EATOM  =    114020.06510763
  Solvation  Ediel_sol  =         0.00000000
  ---------------------------------------------------
  free energy    TOTEN  =       -78.89304666 eV

  energy without entropy =      -78.89304666  energy(sigma->0) =      -78.89304666


--------------------------------------------------------------------------------------------------------




--------------------------------------- Iteration      1(   3)  ---------------------------------------


     EDDAV:  cpu time  152.3266: real time  153.3624
 BZINTS: Fermi energy:  5.007199;688.000000 electrons
         Band energy:***********;  BLOECHL correction:  0.000000
       DOS:  cpu time    0.0065: real time    0.0066
    --------------------------------------------
      LOOP:  cpu time  152.3331: real time  153.3690

 eigenvalue-minimisations  : 22528
 total energy-change (2. order) :-0.2458474E+03  (-0.2449770E+03)
 number of electron     688.0000287 magnetization       0.0000000
 augmentation part      688.0000287 magnetization       0.0000000

 Free energy of the ion-electron system (eV)
  ---------------------------------------------------
  alpha Z        PSCENC =      2355.72938027
  Ewald energy   TEWEN  =    -62466.84185768
  -Hartree energ DENC   =    -42950.04897191
  -exchange      EXHF   =         0.00000000
  -V(xc)+E(xc)   XCENC  =      3286.32403884
  PAW double counting   =    112259.81449706  -115953.62387450
  entropy T*S    EENTRO =         0.00000000
  eigenvalues    EBANDS =    -10876.15872466
  atomic energy  EATOM  =    114020.06510763
  Solvation  Ediel_sol  =         0.00000000
  ---------------------------------------------------
  free energy    TOTEN  =      -324.74040496 eV

  energy without entropy =     -324.74040496  energy(sigma->0) =     -324.74040496


--------------------------------------------------------------------------------------------------------




--------------------------------------- Iteration      1(   4)  ---------------------------------------


     EDDAV:  cpu time  122.9320: real time  123.7974
 BZINTS: Fermi energy:  4.843730;688.000000 electrons
         Band energy:***********;  BLOECHL correction:  0.000000
       DOS:  cpu time    0.0064: real time    0.0064
    --------------------------------------------
      LOOP:  cpu time  122.9384: real time  123.8039

 eigenvalue-minimisations  : 19712
 total energy-change (2. order) :-0.3409227E+01  (-0.3409069E+01)
 number of electron     688.0000287 magnetization       0.0000000
 augmentation part      688.0000287 magnetization       0.0000000

 Free energy of the ion-electron system (eV)
  ---------------------------------------------------
  alpha Z        PSCENC =      2355.72938027
  Ewald energy   TEWEN  =    -62466.84185768
  -Hartree energ DENC   =    -42950.04897191
  -exchange      EXHF   =         0.00000000
  -V(xc)+E(xc)   XCENC  =      3286.32403884
  PAW double counting   =    112259.81449706  -115953.62387450
  entropy T*S    EENTRO =         0.00000000
  eigenvalues    EBANDS =    -10879.56795179
  atomic energy  EATOM  =    114020.06510763
  Solvation  Ediel_sol  =         0.00000000
  ---------------------------------------------------
  free energy    TOTEN  =      -328.14963208 eV

  energy without entropy =     -328.14963208  energy(sigma->0) =     -328.14963208


--------------------------------------------------------------------------------------------------------




--------------------------------------- Iteration      1(   5)  ---------------------------------------


     EDDAV:  cpu time  143.9676: real time  144.9446
 BZINTS: Fermi energy:  4.873641;688.000000 electrons
         Band energy:***********;  BLOECHL correction:  0.000000
       DOS:  cpu time    0.0056: real time    0.0056
    CHARGE:  cpu time    1.5029: real time    1.5120
    MIXING:  cpu time    0.0076: real time    0.0077
    --------------------------------------------
      LOOP:  cpu time  145.4837: real time  146.4699

 eigenvalue-minimisations  : 21504
 total energy-change (2. order) :-0.1033541E+00  (-0.1033537E+00)
 number of electron     688.0000365 magnetization       0.0000000
 augmentation part      282.2960108 magnetization       0.0000000

 Broyden mixing:
  rms(total) = 0.35641E+00    rms(broyden)= 0.35636E+00
  rms(prec ) = 0.39963E+00
  weight for this iteration     100.00

 Free energy of the ion-electron system (eV)
  ---------------------------------------------------
  alpha Z        PSCENC =      2355.72938027
  Ewald energy   TEWEN  =    -62466.84185768
  -Hartree energ DENC   =    -42950.04897191
  -exchange      EXHF   =         0.00000000
  -V(xc)+E(xc)   XCENC  =      3286.32403884
  PAW double counting   =    112259.81449706  -115953.62387450
  entropy T*S    EENTRO =         0.00000000
  eigenvalues    EBANDS =    -10879.67130590
  atomic energy  EATOM  =    114020.06510763
  Solvation  Ediel_sol  =         0.00000000
  ---------------------------------------------------
  free energy    TOTEN  =      -328.25298619 eV

  energy without entropy =     -328.25298619  energy(sigma->0) =     -328.25298619


--------------------------------------------------------------------------------------------------------




--------------------------------------- Iteration      1(   6)  ---------------------------------------


    POTLOK:  cpu time    0.1191: real time    0.1221
    SETDIJ:  cpu time    0.0128: real time    0.0129
     EDDAV:  cpu time  164.3975: real time  165.4833
 BZINTS: Fermi energy:  4.832380;688.000000 electrons
         Band energy:***********;  BLOECHL correction:  0.000000
       DOS:  cpu time    0.0056: real time    0.0056
    CHARGE:  cpu time    1.5724: real time    1.5816
    MIXING:  cpu time    0.0024: real time    0.0179
    --------------------------------------------
      LOOP:  cpu time  166.1099: real time  167.2234

 eigenvalue-minimisations  : 23296
 total energy-change (2. order) : 0.1601434E+00  (-0.1694273E-01)
 number of electron     688.0000365 magnetization       0.0000000
 augmentation part      282.1766067 magnetization       0.0000000

 Broyden mixing:
  rms(total) = 0.18815E+00    rms(broyden)= 0.18815E+00
  rms(prec ) = 0.21100E+00
  weight for this iteration     100.00

 eigenvalues of (default mixing * dielectric matrix)
  average eigenvalue GAMMA=   0.9473
  0.9473

 Free energy of the ion-electron system (eV)
  ---------------------------------------------------
  alpha Z        PSCENC =      2355.72938027
  Ewald energy   TEWEN  =    -62466.84185768
  -Hartree energ DENC   =    -42956.84789186
  -exchange      EXHF   =         0.00000000
  -V(xc)+E(xc)   XCENC  =      3286.54638305
  PAW double counting   =    112305.33667474  -116000.05180281
  entropy T*S    EENTRO =         0.00000000
  eigenvalues    EBANDS =    -10872.02883617
  atomic energy  EATOM  =    114020.06510763
  Solvation  Ediel_sol  =         0.00000000
  ---------------------------------------------------
  free energy    TOTEN  =      -328.09284284 eV

  energy without entropy =     -328.09284284  energy(sigma->0) =     -328.09284284


--------------------------------------------------------------------------------------------------------




--------------------------------------- Iteration      1(   7)  ---------------------------------------


    POTLOK:  cpu time    0.1312: real time    0.1341
    SETDIJ:  cpu time    0.0139: real time    0.0140
     EDDAV:  cpu time  165.0529: real time  166.1662
 BZINTS: Fermi energy:  4.802512;688.000000 electrons
         Band energy:***********;  BLOECHL correction:  0.000000
       DOS:  cpu time    0.0055: real time    0.0055
    CHARGE:  cpu time    1.4975: real time    1.5070
    MIXING:  cpu time    0.0015: real time    0.0024
    --------------------------------------------
      LOOP:  cpu time  166.7024: real time  167.8293

 eigenvalue-minimisations  : 24320
 total energy-change (2. order) : 0.4906968E-01  (-0.1314402E-01)
 number of electron     688.0000365 magnetization       0.0000000
 augmentation part      282.2718662 magnetization       0.0000000

 Broyden mixing:
  rms(total) = 0.99613E-01    rms(broyden)= 0.99612E-01
  rms(prec ) = 0.10789E+00
  weight for this iteration     100.00

 eigenvalues of (default mixing * dielectric matrix)
  average eigenvalue GAMMA=   1.2081
  1.7600  0.6561

 Free energy of the ion-electron system (eV)
  ---------------------------------------------------
  alpha Z        PSCENC =      2355.72938027
  Ewald energy   TEWEN  =    -62466.84185768
  -Hartree energ DENC   =    -42949.61372469
  -exchange      EXHF   =         0.00000000
  -V(xc)+E(xc)   XCENC  =      3286.35967566
  PAW double counting   =    112293.35109282  -115986.70112893
  entropy T*S    EENTRO =         0.00000000
  eigenvalues    EBANDS =    -10880.39231825
  atomic energy  EATOM  =    114020.06510763
  Solvation  Ediel_sol  =         0.00000000
  ---------------------------------------------------
  free energy    TOTEN  =      -328.04377316 eV

  energy without entropy =     -328.04377316  energy(sigma->0) =     -328.04377316


--------------------------------------------------------------------------------------------------------




--------------------------------------- Iteration      1(   8)  ---------------------------------------


    POTLOK:  cpu time    0.1223: real time    0.1231
    SETDIJ:  cpu time    0.0127: real time    0.0128
     EDDAV:  cpu time  152.9537: real time  153.9893
 BZINTS: Fermi energy:  5.008760;688.000000 electrons
         Band energy:***********;  BLOECHL correction:  0.000000
       DOS:  cpu time    0.0063: real time    0.0063
    CHARGE:  cpu time    1.5006: real time    1.5101
    MIXING:  cpu time    0.0014: real time    0.0014
    --------------------------------------------
      LOOP:  cpu time  154.5970: real time  155.6430

 eigenvalue-minimisations  : 22272
 total energy-change (2. order) : 0.1143841E-02  (-0.7467642E-02)
 number of electron     688.0000365 magnetization       0.0000000
 augmentation part      282.2338146 magnetization       0.0000000

 Broyden mixing:
  rms(total) = 0.75749E-01    rms(broyden)= 0.75747E-01
  rms(prec ) = 0.88970E-01
  weight for this iteration     100.00

 eigenvalues of (default mixing * dielectric matrix)
  average eigenvalue GAMMA=   0.9692
  1.8357  0.6549  0.4168

 Free energy of the ion-electron system (eV)
  ---------------------------------------------------
  alpha Z        PSCENC =      2355.72938027
  Ewald energy   TEWEN  =    -62466.84185768
  -Hartree energ DENC   =    -42955.66468259
  -exchange      EXHF   =         0.00000000
  -V(xc)+E(xc)   XCENC  =      3286.58754308
  PAW double counting   =    112284.35083091  -115978.41232673
  entropy T*S    EENTRO =         0.00000000
  eigenvalues    EBANDS =    -10873.85662421
  atomic energy  EATOM  =    114020.06510763
  Solvation  Ediel_sol  =         0.00000000
  ---------------------------------------------------
  free energy    TOTEN  =      -328.04262932 eV

  energy without entropy =     -328.04262932  energy(sigma->0) =     -328.04262932


--------------------------------------------------------------------------------------------------------




--------------------------------------- Iteration      1(   9)  ---------------------------------------


    POTLOK:  cpu time    0.1214: real time    0.1224
    SETDIJ:  cpu time    0.0127: real time    0.0128
     EDDAV:  cpu time  153.8309: real time  154.8683
 BZINTS: Fermi energy:  4.995511;688.000000 electrons
         Band energy:***********;  BLOECHL correction:  0.000000
       DOS:  cpu time    0.0063: real time    0.0063
    CHARGE:  cpu time    1.4990: real time    1.5077
    MIXING:  cpu time    0.0016: real time    0.0030
    --------------------------------------------
      LOOP:  cpu time  155.4720: real time  156.5205

 eigenvalue-minimisations  : 22272
 total energy-change (2. order) : 0.2142579E-02  (-0.3355333E-02)
 number of electron     688.0000365 magnetization       0.0000000
 augmentation part      282.2179146 magnetization       0.0000000

 Broyden mixing:
  rms(total) = 0.38421E-01    rms(broyden)= 0.38419E-01
  rms(prec ) = 0.40499E-01
  weight for this iteration     100.00

 eigenvalues of (default mixing * dielectric matrix)
  average eigenvalue GAMMA=   0.9183
  1.9302  0.8140  0.6218  0.3073

 Free energy of the ion-electron system (eV)
  ---------------------------------------------------
  alpha Z        PSCENC =      2355.72938027
  Ewald energy   TEWEN  =    -62466.84185768
  -Hartree energ DENC   =    -42954.11833326
  -exchange      EXHF   =         0.00000000
  -V(xc)+E(xc)   XCENC  =      3286.46856054
  PAW double counting   =    112280.14860165  -115974.17870363
  entropy T*S    EENTRO =         0.00000000
  eigenvalues    EBANDS =    -10875.31324226
  atomic energy  EATOM  =    114020.06510763
  Solvation  Ediel_sol  =         0.00000000
  ---------------------------------------------------
  free energy    TOTEN  =      -328.04048674 eV

  energy without entropy =     -328.04048674  energy(sigma->0) =     -328.04048674


--------------------------------------------------------------------------------------------------------




--------------------------------------- Iteration      1(  10)  ---------------------------------------


    POTLOK:  cpu time    0.1236: real time    0.1245
    SETDIJ:  cpu time    0.0127: real time    0.0127
     EDDAV:  cpu time  143.7908: real time  144.7840
 BZINTS: Fermi energy:  4.990606;688.000000 electrons
         Band energy:***********;  BLOECHL correction:  0.000000
       DOS:  cpu time    0.0063: real time    0.0063
    CHARGE:  cpu time    1.4999: real time    1.5103
    MIXING:  cpu time    0.0015: real time    0.0015
    --------------------------------------------
      LOOP:  cpu time  145.4347: real time  146.4393

 eigenvalue-minimisations  : 22272
 total energy-change (2. order) :-0.8532127E-04  (-0.1498697E-03)
 number of electron     688.0000365 magnetization       0.0000000
 augmentation part      282.2176795 magnetization       0.0000000

 Broyden mixing:
  rms(total) = 0.20735E-01    rms(broyden)= 0.20735E-01
  rms(prec ) = 0.21593E-01
  weight for this iteration     100.00

 eigenvalues of (default mixing * dielectric matrix)
  average eigenvalue GAMMA=   0.9922
  1.6842  1.6842  0.6994  0.5590  0.3340

 Free energy of the ion-electron system (eV)
  ---------------------------------------------------
  alpha Z        PSCENC =      2355.72938027
  Ewald energy   TEWEN  =    -62466.84185768
  -Hartree energ DENC   =    -42954.28984322
  -exchange      EXHF   =         0.00000000
  -V(xc)+E(xc)   XCENC  =      3286.48156818
  PAW double counting   =    112275.74835930  -115969.66426067
  entropy T*S    EENTRO =         0.00000000
  eigenvalues    EBANDS =    -10875.26902588
  atomic energy  EATOM  =    114020.06510763
  Solvation  Ediel_sol  =         0.00000000
  ---------------------------------------------------
  free energy    TOTEN  =      -328.04057206 eV

  energy without entropy =     -328.04057206  energy(sigma->0) =     -328.04057206


--------------------------------------------------------------------------------------------------------




--------------------------------------- Iteration      1(  11)  ---------------------------------------


    POTLOK:  cpu time    0.1256: real time    0.1266
    SETDIJ:  cpu time    0.0134: real time    0.0135
     EDDAV:  cpu time  186.9773: real time  188.2124
 BZINTS: Fermi energy:  4.981697;688.000000 electrons
         Band energy:***********;  BLOECHL correction:  0.000000
       DOS:  cpu time    0.0063: real time    0.0064
    CHARGE:  cpu time    1.4977: real time    1.5063
    MIXING:  cpu time    0.0015: real time    0.0015
    --------------------------------------------
      LOOP:  cpu time  188.6219: real time  189.8666

 eigenvalue-minimisations  : 25600
 total energy-change (2. order) :-0.1792288E-03  (-0.9223133E-04)
 number of electron     688.0000365 magnetization       0.0000000
 augmentation part      282.2258996 magnetization       0.0000000

 Broyden mixing:
  rms(total) = 0.98798E-02    rms(broyden)= 0.98797E-02
  rms(prec ) = 0.10251E-01
  weight for this iteration     100.00

 eigenvalues of (default mixing * dielectric matrix)
  average eigenvalue GAMMA=   1.1643
  2.2178  2.2178  0.9790  0.6719  0.5618  0.3375

 Free energy of the ion-electron system (eV)
  ---------------------------------------------------
  alpha Z        PSCENC =      2355.72938027
  Ewald energy   TEWEN  =    -62466.84185768
  -Hartree energ DENC   =    -42954.07635910
  -exchange      EXHF   =         0.00000000
  -V(xc)+E(xc)   XCENC  =      3286.48369104
  PAW double counting   =    112270.45342769  -115964.29648860
  entropy T*S    EENTRO =         0.00000000
  eigenvalues    EBANDS =    -10875.55765254
  atomic energy  EATOM  =    114020.06510763
  Solvation  Ediel_sol  =         0.00000000
  ---------------------------------------------------
  free energy    TOTEN  =      -328.04075129 eV

  energy without entropy =     -328.04075129  energy(sigma->0) =     -328.04075129


--------------------------------------------------------------------------------------------------------




--------------------------------------- Iteration      1(  12)  ---------------------------------------


    POTLOK:  cpu time    0.1216: real time    0.1238
    SETDIJ:  cpu time    0.0127: real time    0.0129
     EDDAV:  cpu time  108.7841: real time  109.5663
 BZINTS: Fermi energy:  4.977270;688.000000 electrons
         Band energy:***********;  BLOECHL correction:  0.000000
       DOS:  cpu time    0.0063: real time    0.0065
    CHARGE:  cpu time    1.5872: real time    1.5971
    MIXING:  cpu time    0.0017: real time    0.0017
    --------------------------------------------
      LOOP:  cpu time  110.5135: real time  111.3084

 eigenvalue-minimisations  : 18176
 total energy-change (2. order) :-0.1238004E-03  (-0.3881370E-04)
 number of electron     688.0000365 magnetization       0.0000000
 augmentation part      282.2213285 magnetization       0.0000000

 Broyden mixing:
  rms(total) = 0.35370E-02    rms(broyden)= 0.35369E-02
  rms(prec ) = 0.38109E-02
  weight for this iteration     100.00

 eigenvalues of (default mixing * dielectric matrix)
  average eigenvalue GAMMA=   1.1296
  2.2533  2.2533  0.9849  0.7909  0.6667  0.6215  0.3366

 Free energy of the ion-electron system (eV)
  ---------------------------------------------------
  alpha Z        PSCENC =      2355.72938027
  Ewald energy   TEWEN  =    -62466.84185768
  -Hartree energ DENC   =    -42954.33596408
  -exchange      EXHF   =         0.00000000
  -V(xc)+E(xc)   XCENC  =      3286.48541979
  PAW double counting   =    112266.00543870  -115959.90114890
  entropy T*S    EENTRO =         0.00000000
  eigenvalues    EBANDS =    -10875.24725082
  atomic energy  EATOM  =    114020.06510763
  Solvation  Ediel_sol  =         0.00000000
  ---------------------------------------------------
  free energy    TOTEN  =      -328.04087509 eV

  energy without entropy =     -328.04087509  energy(sigma->0) =     -328.04087509


--------------------------------------------------------------------------------------------------------




--------------------------------------- Iteration      1(  13)  ---------------------------------------


    POTLOK:  cpu time    0.1331: real time    0.1342
    SETDIJ:  cpu time    0.0143: real time    0.0144
     EDDAV:  cpu time  157.6372: real time  158.6867
 BZINTS: Fermi energy:  4.975591;688.000000 electrons
         Band energy:***********;  BLOECHL correction:  0.000000
       DOS:  cpu time    0.0063: real time    0.0064
    CHARGE:  cpu time    1.4993: real time    1.5086
    MIXING:  cpu time    0.0017: real time    0.0017
    --------------------------------------------
      LOOP:  cpu time  159.2920: real time  160.3520

 eigenvalue-minimisations  : 22016
 total energy-change (2. order) :-0.1525113E-04  (-0.4842167E-05)
 number of electron     688.0000365 magnetization       0.0000000
 augmentation part      282.2226670 magnetization       0.0000000

 Broyden mixing:
  rms(total) = 0.21668E-02    rms(broyden)= 0.21668E-02
  rms(prec ) = 0.22978E-02
  weight for this iteration     100.00

 eigenvalues of (default mixing * dielectric matrix)
  average eigenvalue GAMMA=   1.1499
  2.2765  2.2765  1.1509  1.1509  0.3365  0.6877  0.6877  0.6327

 Free energy of the ion-electron system (eV)
  ---------------------------------------------------
  alpha Z        PSCENC =      2355.72938027
  Ewald energy   TEWEN  =    -62466.84185768
  -Hartree energ DENC   =    -42954.18242081
  -exchange      EXHF   =         0.00000000
  -V(xc)+E(xc)   XCENC  =      3286.48120228
  PAW double counting   =    112265.08187736  -115958.94419349
  entropy T*S    EENTRO =         0.00000000
  eigenvalues    EBANDS =    -10875.42998589
  atomic energy  EATOM  =    114020.06510763
  Solvation  Ediel_sol  =         0.00000000
  ---------------------------------------------------
  free energy    TOTEN  =      -328.04089034 eV

  energy without entropy =     -328.04089034  energy(sigma->0) =     -328.04089034


--------------------------------------------------------------------------------------------------------




--------------------------------------- Iteration      1(  14)  ---------------------------------------


    POTLOK:  cpu time    0.1209: real time    0.1221
    SETDIJ:  cpu time    0.0129: real time    0.0129
     EDDAV:  cpu time  139.6419: real time  140.6006
 BZINTS: Fermi energy:  4.974715;688.000000 electrons
         Band energy:***********;  BLOECHL correction:  0.000000
       DOS:  cpu time    0.0064: real time    0.0064
    CHARGE:  cpu time    1.5007: real time    1.5099
    MIXING:  cpu time    0.0019: real time    0.0019
    --------------------------------------------
      LOOP:  cpu time  141.2845: real time  142.2538

 eigenvalue-minimisations  : 20992
 total energy-change (2. order) :-0.1304540E-04  (-0.3865139E-05)
 number of electron     688.0000365 magnetization      -0.0000000
 augmentation part      282.2218016 magnetization      -0.0000000

 Broyden mixing:
  rms(total) = 0.12038E-02    rms(broyden)= 0.12037E-02
  rms(prec ) = 0.12521E-02
  weight for this iteration     100.00

 eigenvalues of (default mixing * dielectric matrix)
  average eigenvalue GAMMA=   1.2177
  2.4640  2.4640  1.5406  1.5406  0.3365  0.7388  0.6846  0.5950  0.5950

 Free energy of the ion-electron system (eV)
  ---------------------------------------------------
  alpha Z        PSCENC =      2355.72938027
  Ewald energy   TEWEN  =    -62466.84185768
  -Hartree energ DENC   =    -42954.26486789
  -exchange      EXHF   =         0.00000000
  -V(xc)+E(xc)   XCENC  =      3286.48415642
  PAW double counting   =    112264.66405194  -115958.54963215
  entropy T*S    EENTRO =         0.00000000
  eigenvalues    EBANDS =    -10875.32724193
  atomic energy  EATOM  =    114020.06510763
  Solvation  Ediel_sol  =         0.00000000
  ---------------------------------------------------
  free energy    TOTEN  =      -328.04090339 eV

  energy without entropy =     -328.04090339  energy(sigma->0) =     -328.04090339


--------------------------------------------------------------------------------------------------------




--------------------------------------- Iteration      1(  15)  ---------------------------------------


    POTLOK:  cpu time    0.1233: real time    0.1243
    SETDIJ:  cpu time    0.0127: real time    0.0127
     EDDAV:  cpu time  150.4174: real time  151.4372
 BZINTS: Fermi energy:  4.974472;688.000000 electrons
         Band energy:***********;  BLOECHL correction:  0.000000
       DOS:  cpu time    0.0063: real time    0.0064
    CHARGE:  cpu time    1.4981: real time    1.5080
    MIXING:  cpu time    0.0018: real time    0.0018
    --------------------------------------------
      LOOP:  cpu time  152.0596: real time  153.0904

 eigenvalue-minimisations  : 21504
 total energy-change (2. order) :-0.5692316E-05  (-0.1646573E-05)
 number of electron     688.0000365 magnetization      -0.0000000
 augmentation part      282.2221113 magnetization      -0.0000000

 Broyden mixing:
  rms(total) = 0.60995E-03    rms(broyden)= 0.60987E-03
  rms(prec ) = 0.64122E-03
  weight for this iteration     100.00

 eigenvalues of (default mixing * dielectric matrix)
  average eigenvalue GAMMA=   1.2308
  2.9147  2.2722  1.9203  1.1364  1.1364  0.3365  0.7094  0.6243  0.6243  0.6333

 Free energy of the ion-electron system (eV)
  ---------------------------------------------------
  alpha Z        PSCENC =      2355.72938027
  Ewald energy   TEWEN  =    -62466.84185768
  -Hartree energ DENC   =    -42954.23329551
  -exchange      EXHF   =         0.00000000
  -V(xc)+E(xc)   XCENC  =      3286.48315386
  PAW double counting   =    112264.43164256  -115958.31076721
  entropy T*S    EENTRO =         0.00000000
  eigenvalues    EBANDS =    -10875.36427299
  atomic energy  EATOM  =    114020.06510763
  Solvation  Ediel_sol  =         0.00000000
  ---------------------------------------------------
  free energy    TOTEN  =      -328.04090908 eV

  energy without entropy =     -328.04090908  energy(sigma->0) =     -328.04090908


--------------------------------------------------------------------------------------------------------




--------------------------------------- Iteration      1(  16)  ---------------------------------------


    POTLOK:  cpu time    0.1208: real time    0.1220
    SETDIJ:  cpu time    0.0127: real time    0.0128
     EDDAV:  cpu time  124.5238: real time  125.3957
 BZINTS: Fermi energy:  4.974386;688.000000 electrons
         Band energy:***********;  BLOECHL correction:  0.000000
       DOS:  cpu time    0.0063: real time    0.0064
    CHARGE:  cpu time    1.4969: real time    1.5053
    MIXING:  cpu time    0.0020: real time    0.0025
    --------------------------------------------
      LOOP:  cpu time  126.1625: real time  127.0447

 eigenvalue-minimisations  : 19456
 total energy-change (2. order) :-0.1653505E-05  (-0.3728791E-06)
 number of electron     688.0000365 magnetization       0.0000000
 augmentation part      282.2223977 magnetization       0.0000000

 Broyden mixing:
  rms(total) = 0.45149E-03    rms(broyden)= 0.45146E-03
  rms(prec ) = 0.47684E-03
  weight for this iteration     100.00

 eigenvalues of (default mixing * dielectric matrix)
  average eigenvalue GAMMA=   1.3439
  3.3666  2.2408  2.2408  1.5460  1.5460  0.9249  0.3365  0.7026  0.6274  0.6274
  0.6237

 Free energy of the ion-electron system (eV)
  ---------------------------------------------------
  alpha Z        PSCENC =      2355.72938027
  Ewald energy   TEWEN  =    -62466.84185768
  -Hartree energ DENC   =    -42954.22179560
  -exchange      EXHF   =         0.00000000
  -V(xc)+E(xc)   XCENC  =      3286.48292071
  PAW double counting   =    112264.34952136  -115958.22686686
  entropy T*S    EENTRO =         0.00000000
  eigenvalues    EBANDS =    -10875.37732055
  atomic energy  EATOM  =    114020.06510763
  Solvation  Ediel_sol  =         0.00000000
  ---------------------------------------------------
  free energy    TOTEN  =      -328.04091073 eV

  energy without entropy =     -328.04091073  energy(sigma->0) =     -328.04091073


--------------------------------------------------------------------------------------------------------




--------------------------------------- Iteration      1(  17)  ---------------------------------------


    POTLOK:  cpu time    0.1199: real time    0.1228
    SETDIJ:  cpu time    0.0127: real time    0.0127
     EDDAV:  cpu time  142.9558: real time  143.9197
 BZINTS: Fermi energy:  4.974316;688.000000 electrons
         Band energy:***********;  BLOECHL correction:  0.000000
       DOS:  cpu time    0.0063: real time    0.0063
    CHARGE:  cpu time    1.4969: real time    1.5066
    MIXING:  cpu time    0.0019: real time    0.0019
    --------------------------------------------
      LOOP:  cpu time  144.5934: real time  145.5700

 eigenvalue-minimisations  : 20992
 total energy-change (2. order) :-0.1126216E-05  (-0.7131934E-06)
 number of electron     688.0000365 magnetization       0.0000000
 augmentation part      282.2220081 magnetization       0.0000000

 Broyden mixing:
  rms(total) = 0.22296E-03    rms(broyden)= 0.22288E-03
  rms(prec ) = 0.24462E-03
  weight for this iteration     100.00

 eigenvalues of (default mixing * dielectric matrix)
  average eigenvalue GAMMA=   1.3821
  4.0889  2.3744  2.3744  1.5917  1.5917  1.0022  0.3365  0.7273  0.6113  0.6113
  0.6733  0.6025

 Free energy of the ion-electron system (eV)
  ---------------------------------------------------
  alpha Z        PSCENC =      2355.72938027
  Ewald energy   TEWEN  =    -62466.84185768
  -Hartree energ DENC   =    -42954.23619825
  -exchange      EXHF   =         0.00000000
  -V(xc)+E(xc)   XCENC  =      3286.48312686
  PAW double counting   =    112264.53334433  -115958.41324642
  entropy T*S    EENTRO =         0.00000000
  eigenvalues    EBANDS =    -10875.36056860
  atomic energy  EATOM  =    114020.06510763
  Solvation  Ediel_sol  =         0.00000000
  ---------------------------------------------------
  free energy    TOTEN  =      -328.04091186 eV

  energy without entropy =     -328.04091186  energy(sigma->0) =     -328.04091186


--------------------------------------------------------------------------------------------------------




--------------------------------------- Iteration      1(  18)  ---------------------------------------


    POTLOK:  cpu time    0.1196: real time    0.1226
    SETDIJ:  cpu time    0.0127: real time    0.0127
     EDDAV:  cpu time  131.8917: real time  132.7943
 BZINTS: Fermi energy:  4.974289;688.000000 electrons
         Band energy:***********;  BLOECHL correction:  0.000000
       DOS:  cpu time    0.0063: real time    0.0063
    CHARGE:  cpu time    1.5742: real time    1.5831
    MIXING:  cpu time    0.0021: real time    0.0021
    --------------------------------------------
      LOOP:  cpu time  133.6065: real time  134.5212

 eigenvalue-minimisations  : 19968
 total energy-change (2. order) :-0.1977314E-06  (-0.1166068E-06)
 number of electron     688.0000365 magnetization       0.0000000
 augmentation part      282.2222606 magnetization       0.0000000

 Broyden mixing:
  rms(total) = 0.15229E-03    rms(broyden)= 0.15226E-03
  rms(prec ) = 0.15747E-03
  weight for this iteration     100.00

 eigenvalues of (default mixing * dielectric matrix)
  average eigenvalue GAMMA=   1.3444
  4.2654  2.4071  2.4071  1.6405  1.3742  1.0620  0.3365  0.7594  0.7594  0.6108
  0.6108  0.6116  0.6322

 Free energy of the ion-electron system (eV)
  ---------------------------------------------------
  alpha Z        PSCENC =      2355.72938027
  Ewald energy   TEWEN  =    -62466.84185768
  -Hartree energ DENC   =    -42954.22240747
  -exchange      EXHF   =         0.00000000
  -V(xc)+E(xc)   XCENC  =      3286.48285396
  PAW double counting   =    112264.56636355  -115958.44398109
  entropy T*S    EENTRO =         0.00000000
  eigenvalues    EBANDS =    -10875.37637123
  atomic energy  EATOM  =    114020.06510763
  Solvation  Ediel_sol  =         0.00000000
  ---------------------------------------------------
  free energy    TOTEN  =      -328.04091206 eV

  energy without entropy =     -328.04091206  energy(sigma->0) =     -328.04091206


--------------------------------------------------------------------------------------------------------




--------------------------------------- Iteration      1(  19)  ---------------------------------------


    POTLOK:  cpu time    0.1344: real time    0.1359
    SETDIJ:  cpu time    0.0146: real time    0.0147
     EDDAV:  cpu time  127.7114: real time  128.6054
 BZINTS: Fermi energy:  4.974273;688.000000 electrons
         Band energy:***********;  BLOECHL correction:  0.000000
       DOS:  cpu time    0.0063: real time    0.0064
    CHARGE:  cpu time    1.4929: real time    1.5034
    MIXING:  cpu time    0.0021: real time    0.0021
    --------------------------------------------
      LOOP:  cpu time  129.3618: real time  130.2678

 eigenvalue-minimisations  : 19456
 total energy-change (2. order) :-0.2268644E-07  (-0.5688563E-08)
 number of electron     688.0000365 magnetization       0.0000000
 augmentation part      282.2222532 magnetization       0.0000000

 Broyden mixing:
[...]
   -.421E+02 0.967E+01 -.887E+00   0.429E+02 -.974E+01 0.898E+00   -.858E+00 0.633E-01 -.110E-01   0.351E-05 -.378E-05 -.600E-05
   -.421E+02 0.967E+01 -.887E+00   0.429E+02 -.974E+01 0.898E+00   -.858E+00 0.633E-01 -.110E-01   0.353E-05 -.378E-05 -.600E-05
   -.421E+02 0.967E+01 -.887E+00   0.429E+02 -.974E+01 0.898E+00   -.858E+00 0.633E-01 -.110E-01   0.351E-05 -.375E-05 -.600E-05
   -.421E+02 0.967E+01 -.887E+00   0.429E+02 -.974E+01 0.898E+00   -.858E+00 0.633E-01 -.110E-01   0.353E-05 -.375E-05 -.600E-05
   0.421E+02 0.967E+01 0.887E+00   -.429E+02 -.974E+01 -.898E+00   0.858E+00 0.633E-01 0.110E-01   -.352E-05 -.377E-05 0.599E-05
   0.421E+02 0.967E+01 0.887E+00   -.429E+02 -.974E+01 -.898E+00   0.858E+00 0.633E-01 0.110E-01   -.352E-05 -.377E-05 0.599E-05
   0.421E+02 0.967E+01 0.887E+00   -.429E+02 -.974E+01 -.898E+00   0.858E+00 0.633E-01 0.110E-01   -.352E-05 -.376E-05 0.600E-05
   0.421E+02 0.967E+01 0.887E+00   -.429E+02 -.974E+01 -.898E+00   0.858E+00 0.633E-01 0.110E-01   -.352E-05 -.376E-05 0.600E-05
   0.525E-07 -.346E+02 0.617E-07   0.128E-12 0.354E+02 -.462E-13   -.129E-24 -.799E+00 -.165E-23   0.163E-09 -.308E-06 0.453E-08
   0.525E-07 -.346E+02 0.617E-07   0.112E-12 0.354E+02 -.373E-13   0.901E-24 -.799E+00 0.145E-23   -.286E-09 -.308E-06 -.452E-08
   0.525E-07 -.346E+02 0.617E-07   0.142E-12 0.354E+02 0.426E-13   0.976E-24 -.799E+00 -.827E-24   0.163E-09 -.289E-06 0.453E-08
   0.525E-07 -.346E+02 0.617E-07   0.114E-12 0.354E+02 -.711E-14   -.258E-25 -.799E+00 0.517E-23   -.286E-09 -.289E-06 -.452E-08
   -.156E-08 0.497E+02 0.317E-07   -.639E-13 -.507E+02 -.693E-13   -.391E-24 0.923E+00 0.207E-24   -.141E-07 -.121E-04 0.183E-09
   -.156E-08 0.497E+02 0.317E-07   0.320E-13 -.507E+02 -.853E-13   0.131E-23 0.923E+00 0.517E-24   0.142E-07 -.121E-04 -.183E-09
   -.156E-08 0.497E+02 0.317E-07   -.568E-13 -.507E+02 -.128E-12   -.459E-24 0.923E+00 0.207E-24   -.141E-07 -.121E-04 0.183E-09
   -.156E-08 0.497E+02 0.317E-07   0.284E-13 -.507E+02 -.114E-12   0.646E-26 0.923E+00 -.207E-24   0.142E-07 -.121E-04 -.183E-09
   0.208E+01 -.919E+01 0.217E+00   -.206E+01 0.882E+01 -.220E+00   -.270E-01 0.370E+00 0.293E-02   -.134E-06 0.264E-04 0.961E-06
   0.208E+01 -.919E+01 0.217E+00   -.206E+01 0.882E+01 -.220E+00   -.270E-01 0.370E+00 0.293E-02   -.885E-07 0.264E-04 0.973E-06
   0.208E+01 -.919E+01 0.217E+00   -.206E+01 0.882E+01 -.220E+00   -.270E-01 0.370E+00 0.293E-02   -.133E-06 0.264E-04 0.947E-06
   0.208E+01 -.919E+01 0.217E+00   -.206E+01 0.882E+01 -.220E+00   -.270E-01 0.370E+00 0.293E-02   -.876E-07 0.264E-04 0.959E-06
   -.208E+01 -.919E+01 -.217E+00   0.206E+01 0.882E+01 0.220E+00   0.270E-01 0.370E+00 -.293E-02   0.737E-07 0.264E-04 -.961E-06
   -.208E+01 -.919E+01 -.217E+00   0.206E+01 0.882E+01 0.220E+00   0.270E-01 0.370E+00 -.293E-02   0.149E-06 0.264E-04 -.974E-06
   -.208E+01 -.919E+01 -.217E+00   0.206E+01 0.882E+01 0.220E+00   0.270E-01 0.370E+00 -.293E-02   0.728E-07 0.264E-04 -.947E-06
   -.208E+01 -.919E+01 -.217E+00   0.206E+01 0.882E+01 0.220E+00   0.270E-01 0.370E+00 -.293E-02   0.148E-06 0.264E-04 -.959E-06
   0.208E+01 -.919E+01 0.217E+00   -.206E+01 0.882E+01 -.220E+00   -.270E-01 0.370E+00 0.293E-02   -.149E-06 0.264E-04 0.959E-06
   0.208E+01 -.919E+01 0.217E+00   -.206E+01 0.882E+01 -.220E+00   -.270E-01 0.370E+00 0.293E-02   -.699E-07 0.264E-04 0.975E-06
   0.208E+01 -.919E+01 0.217E+00   -.206E+01 0.882E+01 -.220E+00   -.270E-01 0.370E+00 0.293E-02   -.150E-06 0.264E-04 0.945E-06
   0.208E+01 -.919E+01 0.217E+00   -.206E+01 0.882E+01 -.220E+00   -.270E-01 0.370E+00 0.293E-02   -.711E-07 0.264E-04 0.960E-06
   -.208E+01 -.919E+01 -.217E+00   0.206E+01 0.882E+01 0.220E+00   0.270E-01 0.370E+00 -.293E-02   0.886E-07 0.264E-04 -.958E-06
   -.208E+01 -.919E+01 -.217E+00   0.206E+01 0.882E+01 0.220E+00   0.270E-01 0.370E+00 -.293E-02   0.130E-06 0.264E-04 -.976E-06
   -.208E+01 -.919E+01 -.217E+00   0.206E+01 0.882E+01 0.220E+00   0.270E-01 0.370E+00 -.293E-02   0.899E-07 0.264E-04 -.944E-06
   -.208E+01 -.919E+01 -.217E+00   0.206E+01 0.882E+01 0.220E+00   0.270E-01 0.370E+00 -.293E-02   0.132E-06 0.264E-04 -.961E-06
   -.240E+01 -.902E+01 0.271E+00   0.235E+01 0.853E+01 -.279E+00   0.508E-01 0.491E+00 0.655E-02   -.705E-05 0.637E-05 -.432E-05
   -.240E+01 -.902E+01 0.271E+00   0.235E+01 0.853E+01 -.279E+00   0.508E-01 0.491E+00 0.655E-02   -.699E-05 0.637E-05 -.433E-05
   -.240E+01 -.902E+01 0.271E+00   0.235E+01 0.853E+01 -.279E+00   0.508E-01 0.491E+00 0.655E-02   -.705E-05 0.643E-05 -.431E-05
   -.240E+01 -.902E+01 0.271E+00   0.235E+01 0.853E+01 -.279E+00   0.508E-01 0.491E+00 0.655E-02   -.699E-05 0.643E-05 -.432E-05
   0.240E+01 -.902E+01 -.271E+00   -.235E+01 0.853E+01 0.279E+00   -.508E-01 0.491E+00 -.655E-02   0.700E-05 0.637E-05 0.432E-05
   0.240E+01 -.902E+01 -.271E+00   -.235E+01 0.853E+01 0.279E+00   -.508E-01 0.491E+00 -.655E-02   0.704E-05 0.637E-05 0.433E-05
   0.240E+01 -.902E+01 -.271E+00   -.235E+01 0.853E+01 0.279E+00   -.508E-01 0.491E+00 -.655E-02   0.700E-05 0.643E-05 0.431E-05
   0.240E+01 -.902E+01 -.271E+00   -.235E+01 0.853E+01 0.279E+00   -.508E-01 0.491E+00 -.655E-02   0.704E-05 0.643E-05 0.432E-05
   -.240E+01 -.902E+01 0.271E+00   0.235E+01 0.853E+01 -.279E+00   0.508E-01 0.491E+00 0.655E-02   -.704E-05 0.638E-05 -.432E-05
   -.240E+01 -.902E+01 0.271E+00   0.235E+01 0.853E+01 -.279E+00   0.508E-01 0.491E+00 0.655E-02   -.700E-05 0.638E-05 -.433E-05
   -.240E+01 -.902E+01 0.271E+00   0.235E+01 0.853E+01 -.279E+00   0.508E-01 0.491E+00 0.655E-02   -.704E-05 0.642E-05 -.430E-05
   -.240E+01 -.902E+01 0.271E+00   0.235E+01 0.853E+01 -.279E+00   0.508E-01 0.491E+00 0.655E-02   -.700E-05 0.642E-05 -.432E-05
   0.240E+01 -.902E+01 -.271E+00   -.235E+01 0.853E+01 0.279E+00   -.508E-01 0.491E+00 -.655E-02   0.699E-05 0.638E-05 0.432E-05
   0.240E+01 -.902E+01 -.271E+00   -.235E+01 0.853E+01 0.279E+00   -.508E-01 0.491E+00 -.655E-02   0.705E-05 0.638E-05 0.433E-05
   0.240E+01 -.902E+01 -.271E+00   -.235E+01 0.853E+01 0.279E+00   -.508E-01 0.491E+00 -.655E-02   0.699E-05 0.642E-05 0.430E-05
   0.240E+01 -.902E+01 -.271E+00   -.235E+01 0.853E+01 0.279E+00   -.508E-01 0.491E+00 -.655E-02   0.705E-05 0.642E-05 0.432E-05
 -----------------------------------------------------------------------------------------------
   -.161E-06 -.158E+02 0.324E-03   0.213E-12 -.373E-12 0.624E-13   -.722E-15 0.158E+02 0.173E-17   -.393E-10 0.365E-03 -.408E-10
 
 
 POSITION                                       TOTAL-FORCE (eV/Angst)
 -----------------------------------------------------------------------------------
      1.34489      1.29640      1.32264        -0.000336     -0.000234      0.000011
      6.60221      1.29640      1.39605        -0.000336     -0.000234      0.000011
      1.34489      6.55481      1.32264        -0.000336     -0.000234      0.000011
      6.60221      6.55481      1.39605        -0.000336     -0.000234      0.000011
      3.94878      3.92561      1.35317         0.000336     -0.000234     -0.000011
      9.20610      3.92561      1.42658         0.000336     -0.000234     -0.000011
      3.94878      9.18402      1.35317         0.000336     -0.000234     -0.000011
      9.20610      9.18402      1.42658         0.000336     -0.000234     -0.000011
      1.44152      3.91883      9.12674         0.000000      0.000318     -0.000000
      6.69884      3.91883      9.20015         0.000000      0.000318     -0.000000
      1.44152      9.17725      9.12674         0.000000      0.000318     -0.000000
      6.69884      9.17725      9.20015         0.000000      0.000318     -0.000000
      4.07018      1.31340      9.16344         0.000000      0.000060     -0.000000
      9.32751      1.31340      9.23685         0.000000      0.000060     -0.000000
      4.07018      6.57182      9.16344         0.000000      0.000060     -0.000000
      9.32751      6.57182      9.23685         0.000000      0.000060     -0.000000
      1.39279      1.29640      6.52125         0.000336     -0.000234     -0.000011
      6.65012      1.29640      6.59467         0.000336     -0.000234     -0.000011
      1.39279      6.55481      6.52125         0.000336     -0.000234     -0.000011
      6.65012      6.55481      6.59467         0.000336     -0.000234     -0.000011
      4.04623      3.92561      6.56413        -0.000336     -0.000234      0.000011
      9.30355      3.92561      6.63755        -0.000336     -0.000234      0.000011
      4.04623      9.18402      6.56413        -0.000336     -0.000234      0.000011
      9.30355      9.18402      6.63755        -0.000336     -0.000234      0.000011
      3.99750      1.28963      3.95865         0.000000      0.000318     -0.000000
      9.25483      1.28963      4.03206         0.000000      0.000318     -0.000000
      3.99750      6.54804      3.95865         0.000000      0.000318     -0.000000
      9.25483      6.54804      4.03206         0.000000      0.000318     -0.000000
      1.36884      3.94261      3.92195         0.000000      0.000060     -0.000000
      6.62616      3.94261      3.99536         0.000000      0.000060     -0.000000
      1.36884      9.20103      3.92195         0.000000      0.000060     -0.000000
      6.62616      9.20103      3.99536         0.000000      0.000060     -0.000000
     10.58203      0.01598      5.35157        -0.000428     -0.000438     -0.000520
      5.32470      0.01598      5.27816        -0.000428     -0.000438     -0.000520
     10.58203      5.27439      5.35157        -0.000428     -0.000438     -0.000520
      5.32470      5.27439      5.27816        -0.000428     -0.000438     -0.000520
      2.67030      0.01598      2.63914         0.000428     -0.000438      0.000520
      7.92763      0.01598      2.71256         0.000428     -0.000438      0.000520
      2.67030      5.27439      2.63914         0.000428     -0.000438      0.000520
      7.92763      5.27439      2.71256         0.000428     -0.000438      0.000520
      2.62336      2.64518      0.03666        -0.000428     -0.000438     -0.000520
      7.88069      2.64518      0.11007        -0.000428     -0.000438     -0.000520
      2.62336      7.90360      0.03666        -0.000428     -0.000438     -0.000520
      7.88069      7.90360      0.11007        -0.000428     -0.000438     -0.000520
      0.11432      2.64518      7.80723         0.000428     -0.000438      0.000520
      5.37164      2.64518      7.88064         0.000428     -0.000438      0.000520
      0.11432      7.90360      7.80723         0.000428     -0.000438      0.000520
      5.37164      7.90360      7.88064         0.000428     -0.000438      0.000520
     10.51203      0.01532      0.14727        -0.000341      0.000483     -0.000502
      5.25470      0.01532      0.07385        -0.000341      0.000483     -0.000502
     10.51203      5.27374      0.14727        -0.000341      0.000483     -0.000502
      5.25470      5.27374      0.07385        -0.000341      0.000483     -0.000502
      2.74030      0.01532      7.84345         0.000341      0.000483      0.000502
      7.99763      0.01532      7.91686         0.000341      0.000483      0.000502
      2.74030      5.27374      7.84345         0.000341      0.000483      0.000502
      7.99763      5.27374      7.91686         0.000341      0.000483      0.000502
      2.69872      2.64453      5.24194        -0.000341      0.000483     -0.000502
      7.95604      2.64453      5.31535        -0.000341      0.000483     -0.000502
      2.69872      7.90294      5.24194        -0.000341      0.000483     -0.000502
      7.95604      7.90294      5.31535        -0.000341      0.000483     -0.000502
      0.03896      2.64453      2.60195         0.000341      0.000483      0.000502
      5.29629      2.64453      2.67536         0.000341      0.000483      0.000502
      0.03896      7.90294      2.60195         0.000341      0.000483      0.000502
      5.29629      7.90294      2.67536         0.000341      0.000483      0.000502
 -----------------------------------------------------------------------------------
    total drift:                               -0.000000     -0.028434      0.000324


--------------------------------------------------------------------------------------------------------



  FREE ENERGIE OF THE ION-ELECTRON SYSTEM (eV)
  ---------------------------------------------------
  free  energy   TOTEN  =      -328.04091209 eV

  energy  without entropy=     -328.04091209  energy(sigma->0) =     -328.04091209
 


--------------------------------------------------------------------------------------------------------


    POTLOK:  cpu time    0.1309: real time    0.1316


--------------------------------------------------------------------------------------------------------


 writing wavefunctions
     LOOP+:  cpu time 3051.6360: real time 3072.9150
    4ORBIT:  cpu time    0.0000: real time    0.0000
 


 total charge     
 
# of ion       s       p       d       tot
------------------------------------------
    1        1.314   2.410   0.000   3.724
    2        1.314   2.410   0.000   3.724
    3        1.314   2.410   0.000   3.724
    4        1.314   2.410   0.000   3.724
    5        1.314   2.410   0.000   3.724
    6        1.314   2.410   0.000   3.724
    7        1.314   2.410   0.000   3.724
    8        1.314   2.410   0.000   3.724
    9        1.314   2.409   0.000   3.723
   10        1.314   2.409   0.000   3.723
   11        1.314   2.409   0.000   3.723
   12        1.314   2.409   0.000   3.723
   13        1.313   2.411   0.000   3.724
   14        1.313   2.411   0.000   3.724
   15        1.313   2.411   0.000   3.724
   16        1.313   2.411   0.000   3.724
   17        1.314   2.410   0.000   3.724
   18        1.314   2.410   0.000   3.724
   19        1.314   2.410   0.000   3.724
   20        1.314   2.410   0.000   3.724
   21        1.314   2.410   0.000   3.724
   22        1.314   2.410   0.000   3.724
   23        1.314   2.410   0.000   3.724
   24        1.314   2.410   0.000   3.724
   25        1.314   2.409   0.000   3.723
   26        1.314   2.409   0.000   3.723
   27        1.314   2.409   0.000   3.723
   28        1.314   2.409   0.000   3.723
   29        1.313   2.411   0.000   3.724
   30        1.313   2.411   0.000   3.724
   31        1.313   2.411   0.000   3.724
   32        1.313   2.411   0.000   3.724
   33        0.260   6.202   8.917  15.378
   34        0.260   6.202   8.917  15.378
   35        0.260   6.202   8.917  15.378
   36        0.260   6.202   8.917  15.378
   37        0.260   6.202   8.917  15.378
   38        0.260   6.202   8.917  15.378
   39        0.260   6.202   8.917  15.378
   40        0.260   6.202   8.917  15.378
   41        0.260   6.202   8.917  15.378
   42        0.260   6.202   8.917  15.378
   43        0.260   6.202   8.917  15.378
   44        0.260   6.202   8.917  15.378
   45        0.260   6.202   8.917  15.378
   46        0.260   6.202   8.917  15.378
   47        0.260   6.202   8.917  15.378
   48        0.260   6.202   8.917  15.378
   49        0.350   6.351   5.820  12.521
   50        0.350   6.351   5.820  12.521
   51        0.350   6.351   5.820  12.521
   52        0.350   6.351   5.820  12.521
   53        0.350   6.351   5.820  12.521
   54        0.350   6.351   5.820  12.521
   55        0.350   6.351   5.820  12.521
   56        0.350   6.351   5.820  12.521
   57        0.350   6.351   5.820  12.521
   58        0.350   6.351   5.820  12.521
   59        0.350   6.351   5.820  12.521
   60        0.350   6.351   5.820  12.521
   61        0.350   6.351   5.820  12.521
   62        0.350   6.351   5.820  12.521
   63        0.350   6.351   5.820  12.521
   64        0.350   6.351   5.820  12.521
--------------------------------------------------
tot         51.787 277.962 235.783 565.532
 


 magnetization (x)
 
# of ion       s       p       d       tot
------------------------------------------
    1       -0.000  -0.007   0.000  -0.007
    2       -0.000  -0.007   0.000  -0.007
    3       -0.000  -0.007   0.000  -0.007
    4       -0.000  -0.007   0.000  -0.007
    5        0.000   0.007   0.000   0.007
    6        0.000   0.007   0.000   0.007
    7        0.000   0.007   0.000   0.007
    8        0.000   0.007   0.000   0.007
    9        0.000  -0.000   0.000  -0.000
   10       -0.000   0.000   0.000   0.000
   11        0.000  -0.000   0.000  -0.000
   12        0.000   0.000   0.000   0.000
   13       -0.000  -0.000   0.000  -0.000
   14       -0.000  -0.000   0.000  -0.000
   15       -0.000  -0.000   0.000  -0.000
   16        0.000  -0.000   0.000  -0.000
   17        0.000   0.007   0.000   0.007
   18        0.000   0.007   0.000   0.007
   19        0.000   0.007   0.000   0.007
   20        0.000   0.007   0.000   0.007
   21       -0.000  -0.007   0.000  -0.007
   22       -0.000  -0.007   0.000  -0.007
   23       -0.000  -0.007   0.000  -0.007
   24       -0.000  -0.007   0.000  -0.007
   25        0.000   0.000   0.000   0.000
   26        0.000   0.000   0.000   0.000
   27        0.000   0.000   0.000   0.000
   28        0.000   0.000   0.000   0.000
   29       -0.000  -0.000   0.000  -0.000
   30        0.000  -0.000   0.000  -0.000
   31       -0.000  -0.000   0.000  -0.000
   32       -0.000  -0.000   0.000  -0.000
   33        0.000   0.001  -0.001  -0.000
   34        0.000   0.001  -0.001  -0.000
   35        0.000   0.001  -0.001  -0.000
   36        0.000   0.001  -0.001  -0.000
   37       -0.000  -0.001   0.001   0.000
   38       -0.000  -0.001   0.001   0.000
   39       -0.000  -0.001   0.001   0.000
   40       -0.000  -0.001   0.001   0.000
   41        0.000   0.001  -0.001  -0.000
   42        0.000   0.001  -0.001  -0.000
   43        0.000   0.001  -0.001  -0.000
   44        0.000   0.001  -0.001  -0.000
   45       -0.000  -0.001   0.001   0.000
   46       -0.000  -0.001   0.001   0.000
   47       -0.000  -0.001   0.001   0.000
   48       -0.000  -0.001   0.001   0.000
   49        0.020   0.054   3.671   3.744
   50        0.020   0.054   3.671   3.744
   51        0.020   0.054   3.671   3.744
   52        0.020   0.054   3.671   3.744
   53       -0.020  -0.054  -3.671  -3.744
   54       -0.020  -0.054  -3.671  -3.744
   55       -0.020  -0.054  -3.671  -3.744
   56       -0.020  -0.054  -3.671  -3.744
   57        0.020   0.054   3.671   3.744
   58        0.020   0.054   3.671   3.744
   59        0.020   0.054   3.671   3.744
   60        0.020   0.054   3.671   3.744
   61       -0.020  -0.054  -3.671  -3.744
   62       -0.020  -0.054  -3.671  -3.744
   63       -0.020  -0.054  -3.671  -3.744
   64       -0.020  -0.054  -3.671  -3.744
--------------------------------------------------
tot          0.000  -0.000   0.000  -0.000
 
 BZINTS: Fermi energy:  4.974260;688.000000 electrons
         Band energy:***********;  BLOECHL correction:  0.000000

 total amount of memory used by VASP MPI-rank0   349631. kBytes
=======================================================================

   base      :      30000. kBytes
   nonl-proj :     217907. kBytes
   fftplans  :       4588. kBytes
   grid      :      69719. kBytes
   one-center:       1990. kBytes
   wavefun   :      25427. kBytes
 
  
  
 General timing and accounting informations for this job:
 ========================================================
  
                  Total CPU time used (sec):     3111.344
                            User time (sec):     3099.914
                          System time (sec):       11.430
                         Elapsed time (sec):     3134.209
  
                   Maximum memory used (kb):      710032.
                   Average memory used (kb):           0.
  
                          Minor page faults:       571103
                          Major page faults:         5599
                 Voluntary context switches:         7107
