       N       E                     dE             d eps       ncg     rms          rms(c)
DAV:   1     0.599801617102E+04    0.59980E+04   -0.51889E+05 16384   0.197E+03
DAV:   2    -0.137021147829E+03   -0.61350E+04   -0.60292E+04 18944   0.448E+02
DAV:   3    -0.376232742498E+03   -0.23921E+03   -0.23859E+03 21760   0.960E+01
DAV:   4    -0.379609555561E+03   -0.33768E+01   -0.33766E+01 20992   0.115E+01
DAV:   5    -0.379717485506E+03   -0.10793E+00   -0.10793E+00 20480   0.200E+00    0.567E+01
DAV:   6    -0.340751774617E+03    0.38966E+02   -0.59632E+01 25344   0.260E+01    0.332E+01
DAV:   7    -0.330419853673E+03    0.10332E+02   -0.27378E+01 20480   0.175E+01    0.257E+01
DAV:   8    -0.327821874235E+03    0.25980E+01   -0.99120E+00 23040   0.679E+00    0.911E+00
DAV:   9    -0.327493712807E+03    0.32816E+00   -0.28848E+00 24576   0.546E+00    0.464E+00
DAV:  10    -0.327685089630E+03   -0.19138E+00   -0.30681E+00 21760   0.445E+00    0.571E+00
DAV:  11    -0.327546093871E+03    0.13900E+00   -0.12195E+00 20736   0.321E+00    0.175E+00
DAV:  12    -0.327581984205E+03   -0.35890E-01   -0.11767E-01 22272   0.509E-01    0.739E-01
DAV:  13    -0.327592968791E+03   -0.10985E-01   -0.30506E-02 20992   0.310E-01    0.378E-01
DAV:  14    -0.327596119977E+03   -0.31512E-02   -0.80229E-03 21760   0.144E-01    0.187E-01
DAV:  15    -0.327597445080E+03   -0.13251E-02   -0.31079E-03 22528   0.740E-02    0.109E-01
DAV:  16    -0.327598227827E+03   -0.78275E-03   -0.26909E-03 21504   0.496E-02    0.657E-02
DAV:  17    -0.327598458152E+03   -0.23033E-03   -0.11715E-03 19456   0.374E-02    0.345E-02
DAV:  18    -0.327598498294E+03   -0.40141E-04   -0.21509E-04 22016   0.172E-02    0.155E-02
DAV:  19    -0.327598505455E+03   -0.71609E-05   -0.31930E-05 19712   0.822E-03    0.941E-03
DAV:  20    -0.327598507908E+03   -0.24534E-05   -0.15986E-05 23296   0.544E-03    0.518E-03
DAV:  21    -0.327598508589E+03   -0.68119E-06   -0.25785E-06 18176   0.198E-03    0.249E-03
DAV:  22    -0.327598508767E+03   -0.17807E-06   -0.43454E-07 23552   0.109E-03    0.130E-03
DAV:  23    -0.327598508858E+03   -0.90251E-07   -0.13426E-07 19200   0.568E-04    0.720E-04
DAV:  24    -0.327598508902E+03   -0.44791E-07   -0.10393E-07 22016   0.323E-04    0.448E-04
DAV:  25    -0.327598508922E+03   -0.19674E-07   -0.71673E-08 13312   0.268E-04    0.187E-04
DAV:  26    -0.327598508924E+03   -0.22264E-08   -0.30696E-09 15616   0.974E-05
   1 F= -.32759851E+03 E0= -.32759851E+03  d E =0.000000E+00  mag=    -0.0000
