 vasp.5.4.4.18Apr17-6-g9f103f2a35 (build Oct 30 2023 17:30:16) complex          
  
 executed on             LinuxIFC date 2024.06.30  20:56:49
 running on  256 total cores
 distrk:  each k-point on  256 cores,    1 groups
 distr:  one band on NCORES_PER_BAND=   1 cores,  256 groups


--------------------------------------------------------------------------------------------------------


 INCAR:
 POTCAR:    PAW_PBE S 06Sep2000                   
 POTCAR:     PAW_PBE Cu_pv 06Sep2000              
 POTCAR:     PAW_PBE Fe_pv 02Aug2007              

 ----------------------------------------------------------------------------- 
|                                                                             |
|           W    W    AA    RRRRR   N    N  II  N    N   GGGG   !!!           |
|           W    W   A  A   R    R  NN   N  II  NN   N  G    G  !!!           |
|           W    W  A    A  R    R  N N  N  II  N N  N  G       !!!           |
|           W WW W  AAAAAA  RRRRR   N  N N  II  N  N N  G  GGG   !            |
|           WW  WW  A    A  R   R   N   NN  II  N   NN  G    G                |
|           W    W  A    A  R    R  N    N  II  N    N   GGGG   !!!           |
|                                                                             |
|      For optimal performance we recommend to set                            |
|        NCORE= 4 - approx SQRT( number of cores)                             |
|      NCORE specifies how many cores store one orbital (NPAR=cpu/NCORE).     |
|      This setting can  greatly improve the performance of VASP for DFT.     |
|      The default,   NCORE=1            might be grossly inefficient         |
|      on modern multi-core architectures or massively parallel machines.     |
|      Do your own testing !!!!                                               |
|      Unfortunately you need to use the default for GW and RPA calculations. |
|      (for HF NCORE is supported but not extensively tested yet)             |
|                                                                             |
 ----------------------------------------------------------------------------- 

 POTCAR:    PAW_PBE S 06Sep2000                   
   SHA256 =  0fc7481fb0695f01bdc6462160264c5c84044ae9ec85a907d398b887a2bc3132 S/
   COPYR  = (c) Copyright 06Sep2000 Georg Kresse                                
   COPYR  = This file is part of the software VASP. Any use, copying, and all ot
   COPYR  = If you do not have a valid VASP license, you may not use, copy or di
   VRHFIN =S : s2p4                                                             
   LEXCH  = PE                                                                  
   EATOM  =   276.8230 eV,   20.3459 Ry                                         
                                                                                
   TITEL  = PAW_PBE S 06Sep2000                                                 
   LULTRA =        F    use ultrasoft PP ?                                      
   IUNSCR =        1    unscreen: 0-lin 1-nonlin 2-no                           
   RPACOR =    1.500    partial core radius                                     
   POMASS =   32.066; ZVAL   =    6.000    mass and valenz                      
   RCORE  =    1.900    outmost cutoff radius                                   
   RWIGS  =    2.200; RWIGS  =    1.164    wigner-seitz radius (au A)           
   ENMAX  =  258.689; ENMIN  =  194.016 eV                                      
   ICORE  =        2    local potential                                         
   LCOR   =        T    correct aug charges                                     
   LPAW   =        T    paw PP                                                  
   EAUG   =  335.092                                                            
   DEXC   =    0.000                                                            
   RMAX   =    1.942    core radius for proj-oper                               
   RAUG   =    1.300    factor for augmentation sphere                          
   RDEP   =    1.954    radius for radial grids                                 
   RDEPT  =    1.744    core radius for aug-charge                              
                                                                                
   Atomic configuration                                                         
    6 entries                                                                   
     n  l   j            E        occ.                                          
     1  0  0.50     -2405.8406   2.0000                                         
     2  0  0.50      -211.7007   2.0000                                         
     2  1  1.50      -156.4958   6.0000                                         
     3  0  0.50       -17.2562   2.0000                                         
     3  1  0.50        -7.0085   4.0000                                         
     3  2  1.50        -6.8029   0.0000                                         
   Description                                                                  
     l       E           TYP  RCUT    TYP  RCUT                                 
     0    -17.2561641     23  1.900                                             
     0    -15.8743224     23  1.900                                             
     1     -7.0085400     23  1.900                                             
     1     -2.7779785     23  1.900                                             
     2     -6.8029130     23  1.900                                             
  local pseudopotential read in
  partial core-charges read in
  partial kinetic energy density read in
  atomic valenz-charges read in
  non local Contribution for L=           0  read in
    real space projection operators read in
  non local Contribution for L=           0  read in
    real space projection operators read in
  non local Contribution for L=           1  read in
    real space projection operators read in
  non local Contribution for L=           1  read in
    real space projection operators read in
    PAW grid and wavefunctions read in
 
   number of l-projection  operators is LMAX  =           4
   number of lm-projection operators is LMMAX =           8
 
 POTCAR:     PAW_PBE Cu_pv 06Sep2000              
   SHA256 =  cb7b504e2ea725fe1f25c85a9ac77d4012ce94cd394135b722c4e25ec297f1cb Cu
   COPYR  = (c) Copyright 06Sep2000 Georg Kresse                                
   COPYR  = This file is part of the software VASP. Any use, copying, and all ot
   COPYR  = If you do not have a valid VASP license, you may not use, copy or di
   VRHFIN =Cu: d10 p1                                                           
   LEXCH  = PE                                                                  
   EATOM  =  4120.1201 eV,  302.8203 Ry                                         
                                                                                
   TITEL  = PAW_PBE Cu_pv 06Sep2000                                             
   LULTRA =        F    use ultrasoft PP ?                                      
   IUNSCR =        1    unscreen: 0-lin 1-nonlin 2-no                           
   RPACOR =    1.500    partial core radius                                     
   POMASS =   63.546; ZVAL   =   17.000    mass and valenz                      
   RCORE  =    2.000    outmost cutoff radius                                   
   RWIGS  =    2.000; RWIGS  =    1.058    wigner-seitz radius (au A)           
   ENMAX  =  368.648; ENMIN  =  276.486 eV                                      
   RCLOC  =    1.304    cutoff for local pot                                    
   LCOR   =        T    correct aug charges                                     
   LPAW   =        T    paw PP                                                  
   EAUG   =  758.233                                                            
   DEXC   =    0.000                                                            
   RMAX   =    2.046    core radius for proj-oper                               
   RAUG   =    1.300    factor for augmentation sphere                          
   RDEP   =    2.025    radius for radial grids                                 
   RDEPT  =    1.558    core radius for aug-charge                              
                                                                                
   Atomic configuration                                                         
    8 entries                                                                   
     n  l   j            E        occ.                                          
     1  0  0.50     -8850.2467   2.0000                                         
     2  0  0.50     -1062.3498   2.0000                                         
     2  1  1.50      -916.8226   6.0000                                         
     3  0  0.50      -114.6929   2.0000                                         
     3  1  1.50       -72.1325   6.0000                                         
     3  2  2.50        -5.0394  10.0000                                         
     4  0  0.50        -4.6097   1.0000                                         
     4  3  2.50        -1.3606   0.0000                                         
   Description                                                                  
     l       E           TYP  RCUT    TYP  RCUT                                 
     1    -72.1324777     23  1.700                                             
     1     -1.3605826     23  1.700                                             
     2     -5.0393776     23  2.000                                             
     2     -6.3999602     23  2.000                                             
     0     -4.6097062     23  1.800                                             
     0     14.1620818     23  1.800                                             
  local pseudopotential read in
  partial core-charges read in
  partial kinetic energy density read in
  atomic valenz-charges read in
  non local Contribution for L=           1  read in
    real space projection operators read in
  non local Contribution for L=           1  read in
    real space projection operators read in
  non local Contribution for L=           2  read in
    real space projection operators read in
  non local Contribution for L=           2  read in
    real space projection operators read in
  non local Contribution for L=           0  read in
    real space projection operators read in
  non local Contribution for L=           0  read in
    real space projection operators read in
    PAW grid and wavefunctions read in
 
   number of l-projection  operators is LMAX  =           6
   number of lm-projection operators is LMMAX =          18
 
 POTCAR:     PAW_PBE Fe_pv 02Aug2007              
   SHA256 =  5d22e414b1f82158bf2c7ecb8b97b28fd0923e48cadc1c3bf74d524558f5dd32 Fe
   COPYR  = (c) Copyright 02Aug2007 Georg Kresse                                
   COPYR  = This file is part of the software VASP. Any use, copying, and all ot
   COPYR  = If you do not have a valid VASP license, you may not use, copy or di
   VRHFIN =Fe:  3pd7s1                                                          
   LEXCH  = PE                                                                  
   EATOM  =  2457.4239 eV,  180.6156 Ry                                         
                                                                                
   TITEL  = PAW_PBE Fe_pv 02Aug2007                                             
   LULTRA =        F    use ultrasoft PP ?                                      
   IUNSCR =        1    unscreen: 0-lin 1-nonlin 2-no                           
   RPACOR =    1.750    partial core radius                                     
   POMASS =   55.847; ZVAL   =   14.000    mass and valenz                      
   RCORE  =    2.200    outmost cutoff radius                                   
   RWIGS  =    2.200; RWIGS  =    1.164    wigner-seitz radius (au A)           
   ENMAX  =  293.238; ENMIN  =  219.928 eV                                      
   ICORE  =        3    local potential                                         
   LCOR   =        T    correct aug charges                                     
   LPAW   =        T    paw PP                                                  
   EAUG   =  578.342                                                            
   DEXC   =    0.000                                                            
   RMAX   =    2.249    core radius for proj-oper                               
   RAUG   =    1.300    factor for augmentation sphere                          
   RDEP   =    2.296    radius for radial grids                                 
   RDEPT  =    1.766    core radius for aug-charge                              
                                                                                
   Atomic configuration                                                         
    8 entries                                                                   
     n  l   j            E        occ.                                          
     1  0  0.50     -6993.8440   2.0000                                         
     2  0  0.50      -814.6047   2.0000                                         
     2  1  1.50      -693.3689   6.0000                                         
     3  0  0.50       -89.4732   2.0000                                         
     3  1  1.50       -55.6373   6.0000                                         
     3  2  2.50        -3.8151   7.0000                                         
     4  0  0.50        -4.2551   1.0000                                         
     4  3  2.50        -1.3606   0.0000                                         
   Description                                                                  
     l       E           TYP  RCUT    TYP  RCUT                                 
     1    -55.6372668     23  2.000                                             
     1     -5.4423304     23  2.000                                             
     2     -3.8151096     23  2.200                                             
     2     -5.1756922     23  2.200                                             
     0     -4.2550951     23  2.200                                             
     0     27.2116520     23  2.200                                             
     3     -1.3605826     23  2.200                                             
  local pseudopotential read in
  partial core-charges read in
  partial kinetic energy density read in
  atomic valenz-charges read in
  non local Contribution for L=           1  read in
    real space projection operators read in
  non local Contribution for L=           1  read in
    real space projection operators read in
  non local Contribution for L=           2  read in
    real space projection operators read in
  non local Contribution for L=           2  read in
    real space projection operators read in
  non local Contribution for L=           0  read in
    real space projection operators read in
  non local Contribution for L=           0  read in
    real space projection operators read in
    PAW grid and wavefunctions read in
 
   number of l-projection  operators is LMAX  =           6
   number of lm-projection operators is LMMAX =          18
 

 ----------------------------------------------------------------------------- 
|                                                                             |
|  ADVICE TO THIS USER RUNNING 'VASP/VAMP'   (HEAR YOUR MASTER'S VOICE ...):  |
|                                                                             |
|      You have a (more or less) 'large supercell' and for larger cells       |
|      it might be more efficient to use real space projection opertators     |
|      So try LREAL= Auto  in the INCAR   file.                               |
|      Mind:          For very  accurate calculation you might also keep the  |
|      reciprocal projection scheme          (i.e. LREAL=.FALSE.)             |
|                                                                             |
 ----------------------------------------------------------------------------- 


 ----------------------------------------------------------------------------- 
|                                                                             |
|  ADVICE TO THIS USER RUNNING 'VASP/VAMP'   (HEAR YOUR MASTER'S VOICE ...):  |
|                                                                             |
|      You enforced a specific xc-type in the INCAR file,                     |
|      a different type was found on the POTCAR file                          |
|          I HOPE YOU KNOW, WHAT YOU ARE  DOING                               |
|                                                                             |
 ----------------------------------------------------------------------------- 

  PAW_PBE S 06Sep2000                   :
 energy of atom  1       EATOM= -276.8230
 kinetic energy error for atom=    0.0007 (will be added to EATOM!!)
   PAW_PBE Cu_pv 06Sep2000              :
 energy of atom  2       EATOM=-4120.1201
 kinetic energy error for atom=    0.0094 (will be added to EATOM!!)
   PAW_PBE Fe_pv 02Aug2007              :
 energy of atom  3       EATOM=-2457.4239
 kinetic energy error for atom=    0.0025 (will be added to EATOM!!)
 
 
 POSCAR: Fe16 Cu16 S32                           
  positions in direct lattice
  No initial velocities read in
 exchange correlation table for  LEXCH =       14
   RHO(1)=    0.500       N(1)  =     2000
   RHO(2)=  100.500       N(2)  =     4000
 


--------------------------------------------------------------------------------------------------------


 ion  position               nearest neighbor table
   1  0.126  0.122  0.125-  41 2.26  37 2.27  61 2.27  49 2.28
   2  0.626  0.122  0.125-  42 2.26  38 2.27  62 2.27  50 2.28
   3  0.126  0.622  0.125-  43 2.26  39 2.27  63 2.27  51 2.28
   4  0.626  0.622  0.125-  44 2.26  40 2.27  64 2.27  52 2.28
   5  0.374  0.372  0.125-  39 2.26  41 2.27  52 2.27  62 2.28
   6  0.874  0.372  0.125-  40 2.26  42 2.27  51 2.27  61 2.28
   7  0.374  0.872  0.125-  37 2.26  43 2.27  50 2.27  64 2.28
   8  0.874  0.872  0.125-  38 2.26  44 2.27  49 2.27  63 2.28
   9  0.125  0.372  0.875-  41 2.26  45 2.26  51 2.27  55 2.27
  10  0.625  0.372  0.875-  42 2.26  46 2.26  52 2.27  56 2.27
  11  0.125  0.872  0.875-  43 2.26  47 2.26  49 2.27  53 2.27
  12  0.625  0.872  0.875-  44 2.26  48 2.26  50 2.27  54 2.27
  13  0.375  0.124  0.875-  41 2.26  46 2.26  50 2.28  53 2.28
  14  0.875  0.124  0.875-  42 2.26  45 2.26  49 2.28  54 2.28
  15  0.375  0.624  0.875-  43 2.26  48 2.26  52 2.28  55 2.28
  16  0.875  0.624  0.875-  44 2.26  47 2.26  51 2.28  56 2.28
  17  0.124  0.122  0.625-  45 2.26  33 2.27  57 2.27  53 2.28
  18  0.624  0.122  0.625-  46 2.26  34 2.27  58 2.27  54 2.28
  19  0.124  0.622  0.625-  47 2.26  35 2.27  59 2.27  55 2.28
  20  0.624  0.622  0.625-  48 2.26  36 2.27  60 2.27  56 2.28
  21  0.376  0.372  0.625-  36 2.26  46 2.27  55 2.27  57 2.28
  22  0.876  0.372  0.625-  35 2.26  45 2.27  56 2.27  58 2.28
  23  0.376  0.872  0.625-  34 2.26  48 2.27  53 2.27  59 2.28
  24  0.876  0.872  0.625-  33 2.26  47 2.27  54 2.27  60 2.28
  25  0.375  0.122  0.375-  34 2.26  37 2.26  57 2.27  62 2.27
  26  0.875  0.122  0.375-  33 2.26  38 2.26  58 2.27  61 2.27
  27  0.375  0.622  0.375-  36 2.26  39 2.26  59 2.27  64 2.27
  28  0.875  0.622  0.375-  35 2.26  40 2.26  60 2.27  63 2.27
  29  0.125  0.374  0.375-  35 2.26  39 2.26  57 2.28  61 2.28
  30  0.625  0.374  0.375-  36 2.26  40 2.26  58 2.28  62 2.28
  31  0.125  0.874  0.375-  33 2.26  37 2.26  59 2.28  63 2.28
  32  0.625  0.874  0.375-  34 2.26  38 2.26  60 2.28  64 2.28
  33  0.999  0.002  0.500-  24 2.26  31 2.26  26 2.26  17 2.27
  34  0.499  0.002  0.500-  23 2.26  32 2.26  25 2.26  18 2.27
  35  0.999  0.502  0.500-  22 2.26  29 2.26  28 2.26  19 2.27
  36  0.499  0.502  0.500-  21 2.26  30 2.26  27 2.26  20 2.27
  37  0.251  0.002  0.250-   7 2.26  31 2.26  25 2.26   1 2.27
  38  0.751  0.002  0.250-   8 2.26  32 2.26  26 2.26   2 2.27
  39  0.251  0.502  0.250-   5 2.26  29 2.26  27 2.26   3 2.27
  40  0.751  0.502  0.250-   6 2.26  30 2.26  28 2.26   4 2.27
  41  0.249  0.252  0.000-   1 2.26  13 2.26   9 2.26   5 2.27
  42  0.749  0.252  0.000-   2 2.26  14 2.26  10 2.26   6 2.27
  43  0.249  0.752  0.000-   3 2.26  15 2.26  11 2.26   7 2.27
  44  0.749  0.752  0.000-   4 2.26  16 2.26  12 2.26   8 2.27
  45  0.001  0.252  0.750-  17 2.26  14 2.26   9 2.26  22 2.27
  46  0.501  0.252  0.750-  18 2.26  13 2.26  10 2.26  21 2.27
  47  0.001  0.752  0.750-  19 2.26  16 2.26  11 2.26  24 2.27
  48  0.501  0.752  0.750-  20 2.26  15 2.26  12 2.26  23 2.27
  49  0.999  0.002  0.000-   8 2.27  11 2.27  14 2.28   1 2.28
  50  0.499  0.002  0.000-   7 2.27  12 2.27  13 2.28   2 2.28
  51  0.999  0.502  0.000-   6 2.27   9 2.27  16 2.28   3 2.28
  52  0.499  0.502  0.000-   5 2.27  10 2.27  15 2.28   4 2.28
  53  0.251  0.002  0.750-  23 2.27  11 2.27  13 2.28  17 2.28
  54  0.751  0.002  0.750-  24 2.27  12 2.27  14 2.28  18 2.28
  55  0.251  0.502  0.750-  21 2.27   9 2.27  15 2.28  19 2.28
  56  0.751  0.502  0.750-  22 2.27  10 2.27  16 2.28  20 2.28
  57  0.249  0.252  0.500-  17 2.27  25 2.27  29 2.28  21 2.28
  58  0.749  0.252  0.500-  18 2.27  26 2.27  30 2.28  22 2.28
  59  0.249  0.752  0.500-  19 2.27  27 2.27  31 2.28  23 2.28
  60  0.749  0.752  0.500-  20 2.27  28 2.27  32 2.28  24 2.28
  61  0.001  0.252  0.250-   1 2.27  26 2.27  29 2.28   6 2.28
  62  0.501  0.252  0.250-   2 2.27  25 2.27  30 2.28   5 2.28
  63  0.001  0.752  0.250-   3 2.27  28 2.27  31 2.28   8 2.28
  64  0.501  0.752  0.250-   4 2.27  27 2.27  32 2.28   7 2.28
 
  LATTYP: Found a simple monoclinic cell.
 ALAT       =    15.0964996290
 B/A-ratio  =     0.6969783234
 C/A-ratio  =     1.5701753760
 COS(beta)  =    -0.9522379207
  
  Lattice vectors:
  
 A1 = ( -10.7261160000,   0.0000000000, -10.6233110000)
 A2 = (   0.0000000000, -10.5219330000,   0.0000000000)
 A3 = (  10.9439830000,   0.0000000000,  21.0265560000)


Analysis of symmetry for initial positions (statically):
=====================================================================
 Subroutine PRICEL returns following result:
 
  LATTYP: Found a base centered monoclinic cell.
 ALAT       =    11.4592365751
 B/A-ratio  =     0.4591027042
 C/A-ratio  =     0.9080470580
 COS(beta)  =    -0.8077839988
  
  Lattice vectors:
  
 A1 = (  -2.5181287500,  -2.6304832500,   5.1466060000)
 A2 = (  -2.5181287500,   2.6304832500,   5.1466060000)
 A3 = (  -0.2178670000,   0.0000000000, -10.4032450000)
 
   8 primitive cells build up your supercell.
 

 Routine SETGRP: Setting up the symmetry group for a 
 simple monoclinic supercell.


 Subroutine GETGRP returns: Found  2 space group operations
 (whereof  1 operations were pure point group operations)
 out of a pool of  4 trial point group operations.


The static configuration has the point symmetry C_1 .
 The point group associated with its full space group is C_2 .


Analysis of symmetry for dynamics (positions and initial velocities):
=====================================================================
 Subroutine PRICEL returns following result:
 
  LATTYP: Found a base centered monoclinic cell.
 ALAT       =    11.4592365751
 B/A-ratio  =     0.4591027042
 C/A-ratio  =     0.9080470580
 COS(beta)  =    -0.8077839988
  
  Lattice vectors:
  
 A1 = (  -2.5181287500,  -2.6304832500,   5.1466060000)
 A2 = (  -2.5181287500,   2.6304832500,   5.1466060000)
 A3 = (  -0.2178670000,   0.0000000000, -10.4032450000)
 
   8 primitive cells build up your supercell.
 

 Routine SETGRP: Setting up the symmetry group for a 
 simple monoclinic supercell.


 Subroutine GETGRP returns: Found  2 space group operations
 (whereof  1 operations were pure point group operations)
 out of a pool of  4 trial point group operations.


The dynamic configuration has the point symmetry C_1 .
 The point group associated with its full space group is C_2 .


Analysis of structural, dynamic, and magnetic symmetry:
=====================================================================
 Subroutine PRICEL returns following result:
 
  LATTYP: Found a base centered monoclinic cell.
 ALAT       =    11.4592365751
 B/A-ratio  =     0.4591027042
 C/A-ratio  =     0.9080470580
 COS(beta)  =    -0.8077839988
  
  Lattice vectors:
  
 A1 = (  -2.5181287500,  -2.6304832500,   5.1466060000)
 A2 = (  -2.5181287500,   2.6304832500,   5.1466060000)
 A3 = (  -0.2178670000,   0.0000000000, -10.4032450000)
 
   8 primitive cells build up your supercell.
 

 Routine SETGRP: Setting up the symmetry group for a 
 simple monoclinic supercell.


 Subroutine GETGRP returns: Found  2 space group operations
 (whereof  1 operations were pure point group operations)
 out of a pool of  4 trial point group operations.


The magnetic configuration has the point symmetry C_1 .
 The point group associated with its full space group is C_2 .


 Subroutine INISYM returns: Found  2 space group operations
 (whereof  1 operations are pure point group operations),
 and found     8 'primitive' translations

 
 
 KPOINTS: Automatic mesh                          

Automatic generation of k-mesh.
Space group operators:
 irot       det(A)        alpha          n_x          n_y          n_z        tau_x        tau_y        tau_z
    1     1.000000     0.000000     1.000000     0.000000     0.000000     0.000000     0.000000     0.000000
    2     1.000000   180.000000     0.000000     1.000000     0.000000    -0.250000     0.000000    -0.250000
 
 Subroutine IBZKPT returns following result:
 ===========================================
 
 Found      8 irreducible k-points:
 
 Following reciprocal coordinates:
            Coordinates               Weight
  0.000000  0.000000  0.000000      1.000000
  0.500000  0.000000  0.000000      1.000000
  0.000000  0.500000  0.000000      1.000000
  0.500000  0.500000  0.000000      1.000000
  0.000000  0.000000  0.500000      1.000000
  0.500000  0.000000  0.500000      1.000000
  0.000000  0.500000  0.500000      1.000000
  0.500000  0.500000  0.500000      1.000000
 
 Following cartesian coordinates:
            Coordinates               Weight
  0.000000  0.000000  0.000000      1.000000
  0.047603  0.000000 -0.000997      1.000000
  0.000000  0.047520  0.000000      1.000000
  0.047603  0.047520 -0.000997      1.000000
 -0.001007  0.000000  0.048083      1.000000
  0.046596  0.000000  0.047086      1.000000
 -0.001007  0.047520  0.048083      1.000000
  0.046596  0.047520  0.047086      1.000000
 
 TETIRR: Found     24 inequivalent tetrahedra from       48
 
 Subroutine IBZKPT_HF returns following result:
 ==============================================
 
 Found      8 k-points in 1st BZ
 the following      8 k-points will be used (e.g. in the exchange kernel)
 Following reciprocal coordinates:   # in IRBZ
  0.000000  0.000000  0.000000    0.12500000   1 t-inv F
  0.500000  0.000000  0.000000    0.12500000   2 t-inv F
  0.000000  0.500000  0.000000    0.12500000   3 t-inv F
  0.500000  0.500000  0.000000    0.12500000   4 t-inv F
  0.000000  0.000000  0.500000    0.12500000   5 t-inv F
  0.500000  0.000000  0.500000    0.12500000   6 t-inv F
  0.000000  0.500000  0.500000    0.12500000   7 t-inv F
  0.500000  0.500000  0.500000    0.12500000   8 t-inv F


--------------------------------------------------------------------------------------------------------




 Dimension of arrays:
   k-points           NKPTS =      8   k-points in BZ     NKDIM =      8   number of bands    NBANDS=    512
   number of dos      NEDOS =    301   number of ions     NIONS =     64
   non local maximal  LDIM  =      6   non local SUM 2l+1 LMDIM =     18
   total plane-waves  NPLWV = 829440
   max r-space proj   IRMAX =      1   max aug-charges    IRDMAX=  22925
   dimension x,y,z NGX =    96 NGY =   96 NGZ =   90
   dimension x,y,z NGXF=   192 NGYF=  192 NGZF=  180
   support grid    NGXF=   192 NGYF=  192 NGZF=  180
   ions per type =              32  16  16
   NGX,Y,Z   is equivalent  to a cutoff of  15.18, 15.17, 14.38 a.u.
   NGXF,Y,Z  is equivalent  to a cutoff of  30.37, 30.34, 28.76 a.u.

 SYSTEM =  CuFeS2                                  
 POSCAR =  Fe16 Cu16 S32                           

 Startparameter for this run:
   NWRITE =      2    write-flag & timer
   PREC   = accura    normal or accurate (medium, high low for compatibility)
   ISTART =      0    job   : 0-new  1-cont  2-samecut
   ICHARG =      1    charge: 1-file 2-atom 10-const
   ISPIN  =      2    spin polarized calculation?
   LNONCOLLINEAR =      F non collinear calculations
   LSORBIT =      F    spin-orbit coupling
   INIWAV =      1    electr: 0-lowe 1-rand  2-diag
   LASPH  =      F    aspherical Exc in radial PAW
   METAGGA=      F    non-selfconsistent MetaGGA calc.

 Electronic Relaxation 1
   ENCUT  =  700.0 eV  51.45 Ry    7.17 a.u.  22.67 22.70 22.45*2*pi/ulx,y,z
   ENINI  =  700.0     initial cutoff
   ENAUG  =  758.2 eV  augmentation charge cutoff
   NELM   =    500;   NELMIN=  2; NELMDL= -5     # of ELM steps 
   EDIFF  = 0.1E-07   stopping-criterion for ELM
   LREAL  =      F    real-space projection
   NLSPLINE    = F    spline interpolate recip. space projectors
   LCOMPAT=      F    compatible to vasp.4.4
   GGA_COMPAT  = T    GGA compatible to vasp.4.4-vasp.4.6
   LMAXPAW     = -100 max onsite density
   LMAXMIX     =    4 max onsite mixed and CHGCAR
   VOSKOWN=      0    Vosko Wilk Nusair interpolation
   ROPT   =    0.00000   0.00000   0.00000
 Ionic relaxation
   EDIFFG = -.1E-04   stopping-criterion for IOM
   NSW    =      0    number of steps for IOM
   NBLOCK =      1;   KBLOCK =      1    inner block; outer block 
   IBRION =     -1    ionic relax: 0-MD 1-quasi-New 2-CG
   NFREE  =      0    steps in history (QN), initial steepest desc. (CG)
   ISIF   =      2    stress and relaxation
   IWAVPR =     10    prediction:  0-non 1-charg 2-wave 3-comb
   ISYM   =      2    0-nonsym 1-usesym 2-fastsym
   LCORR  =      T    Harris-Foulkes like correction to forces

   POTIM  = 0.5000    time-step for ionic-motion
   TEIN   =    0.0    initial temperature
   TEBEG  =    0.0;   TEEND  =   0.0 temperature during run
   SMASS  =  -3.00    Nose mass-parameter (am)
   estimated Nose-frequenzy (Omega)   =  0.10E-29 period in steps =****** mass=  -0.252E-26a.u.
   SCALEE = 1.0000    scale energy and forces
   NPACO  =    256;   APACO  = 16.0  distance and # of slots for P.C.
   PSTRESS=    0.0 pullay stress

  Mass of Ions in am
   POMASS =  32.07 63.55 55.85
  Ionic Valenz
   ZVAL   =   6.00 17.00 14.00
  Atomic Wigner-Seitz radii
   RWIGS  =  -1.00 -1.00 -1.00
  virtual crystal weights 
   VCA    =   1.00  1.00  1.00
   NELECT =     688.0000    total number of electrons
   NUPDOWN=      -1.0000    fix difference up-down

 DOS related values:
   EMIN   =  10.00;   EMAX   =-10.00  energy-range for DOS
   EFERMI =   0.00
   ISMEAR =    -5;   SIGMA  =   0.03  broadening in eV -4-tet -1-fermi 0-gaus

 Electronic relaxation 2 (details)
   IALGO  =     38    algorithm
   LDIAG  =      T    sub-space diagonalisation (order eigenvalues)
   LSUBROT=      F    optimize rotation matrix (better conditioning)
   TURBO    =      0    0=normal 1=particle mesh
   IRESTART =      0    0=no restart 2=restart with 2 vectors
   NREBOOT  =      0    no. of reboots
   NMIN     =      0    reboot dimension
   EREF     =   0.00    reference energy to select bands
   IMIX   =      4    mixing-type and parameters
     AMIX     =   0.40;   BMIX     =  1.00
     AMIX_MAG =   1.60;   BMIX_MAG =  1.00
     AMIN     =   0.10
     WC   =   100.;   INIMIX=   1;  MIXPRE=   1;  MAXMIX= -45

 Intra band minimization:
   WEIMIN = 0.0000     energy-eigenvalue tresh-hold
   EBREAK =  0.49E-11  absolut break condition
   DEPER  =   0.30     relativ break condition  

   TIME   =   0.40     timestep for ELM

  volume/ion in A,a.u.               =      17.96       121.23
  Fermi-wavevector in a.u.,A,eV,Ry     =   1.379546  2.606964 25.893896  1.903148
  Thomas-Fermi vector in A             =   2.504506
 
 Write flags
   LWAVE        =      T    write WAVECAR
   LDOWNSAMPLE  =      F    k-point downsampling of WAVECAR
   LCHARG       =      T    write CHGCAR
   LVTOT        =      F    write LOCPOT, total local potential
   LVHAR        =      F    write LOCPOT, Hartree potential only
   LELF         =      F    write electronic localiz. function (ELF)
   LORBIT       =     11    0 simple, 1 ext, 2 COOP (PROOUT), +10 PAW based schemes


 Dipole corrections
   LMONO  =      F    monopole corrections only (constant potential shift)
   LDIPOL =      F    correct potential (dipole corrections)
   IDIPOL =      0    1-x, 2-y, 3-z, 4-all directions 
   EPSILON=  1.0000000 bulk dielectric constant

 LDA+U is selected, type is set to LDAUTYPE =  2
   angular momentum for each species LDAUL =     2    2    2
   U (eV)           for each species LDAUU =   0.0  0.1  4.7
   J (eV)           for each species LDAUJ =   0.0  0.0  0.0
 Exchange correlation treatment:
   GGA     =    PS    GGA type
   LEXCH   =    14    internal setting for exchange type
   VOSKOWN=      0    Vosko Wilk Nusair interpolation
   LHFCALC =     F    Hartree Fock is set to
   LHFONE  =     F    Hartree Fock one center treatment
   AEXX    =    0.0000 exact exchange contribution

 Linear response parameters
   LEPSILON=     F    determine dielectric tensor
   LRPA    =     F    only Hartree local field effects (RPA)
   LNABLA  =     F    use nabla operator in PAW spheres
   LVEL    =     F    velocity operator in full k-point grid
   LINTERFAST=   F  fast interpolation
   KINTER  =     0    interpolate to denser k-point grid
   CSHIFT  =0.1000    complex shift for real part using Kramers Kronig
   OMEGAMAX=  -1.0    maximum frequency
   DEG_THRESHOLD= 0.2000000E-02 threshold for treating states as degnerate
   RTIME   =   -0.100 relaxation time in fs
  (WPLASMAI=    0.000 imaginary part of plasma frequency in eV, 0.658/RTIME)
   DFIELD  = 0.0000000 0.0000000 0.0000000 field for delta impulse in time
 
 Orbital magnetization related:
   ORBITALMAG=     F  switch on orbital magnetization
   LCHIMAG   =     F  perturbation theory with respect to B field
   DQ        =  0.001000  dq finite difference perturbation B field
   LLRAUG    =     F  two centre corrections for induced B field

 PEAD related settings:
   LPEAD      =     T    switch on PEAD
   IPEAD      =     4    finite difference order for dpsi/dk
   LCALCPOL   =     T    calculate macroscopic polarization
   LCALCEPS   =     F    calculate dielectric tensor
   EFIELD_PEAD=    0.0000    0.0000    0.0000
   SKIP_EDOTP =     F
   LRPA       =     F
   SKIP_SCF   =     F


--------------------------------------------------------------------------------------------------------


 Static calculation
 charge density and potential will be updated during run
 spin polarized calculation
 Variant of blocked Davidson
 Davidson routine will perform the subspace rotation
 perform sub-space diagonalisation
    after iterative eigenvector-optimisation
 modified Broyden-mixing scheme, WC =      100.0
 initial mixing is a Kerker type mixing with AMIX =  0.4000 and BMIX =      1.0000
 Hartree-type preconditioning will be used
 using additional bands          168
 reciprocal scheme for non local part
 use partial core corrections
 calculate Harris-corrections to forces 
   (improved forces if not selfconsistent)
 use gradient corrections 
 use of overlap-Matrix (Vanderbilt PP)
 Fermi weights with tetrahedron method with Bloechl corrections


--------------------------------------------------------------------------------------------------------


  energy-cutoff  :      700.00
  volume of cell :     1149.75
      direct lattice vectors                 reciprocal lattice vectors
    10.508249000  0.000000000  0.220066000     0.095205088  0.000000000 -0.001993805
     0.000000000 10.521933000  0.000000000     0.000000000  0.095039571  0.000000000
     0.217867000  0.000000000 10.403245000    -0.002013930  0.000000000  0.096166030

  length of vectors
    10.510553082 10.521933000 10.405526059     0.095225963  0.095039571  0.096187116


 
 k-points in units of 2pi/SCALE and weight: Automatic mesh                          
   0.00000000  0.00000000  0.00000000       0.125
   0.04760254  0.00000000 -0.00099690       0.125
   0.00000000  0.04751979  0.00000000       0.125
   0.04760254  0.04751979 -0.00099690       0.125
  -0.00100696  0.00000000  0.04808301       0.125
   0.04659558  0.00000000  0.04708611       0.125
  -0.00100696  0.04751979  0.04808301       0.125
   0.04659558  0.04751979  0.04708611       0.125
 
 k-points in reciprocal lattice and weights: Automatic mesh                          
   0.00000000  0.00000000  0.00000000       0.125
   0.50000000  0.00000000  0.00000000       0.125
   0.00000000  0.50000000  0.00000000       0.125
   0.50000000  0.50000000  0.00000000       0.125
   0.00000000  0.00000000  0.50000000       0.125
   0.50000000  0.00000000  0.50000000       0.125
   0.00000000  0.50000000  0.50000000       0.125
   0.50000000  0.50000000  0.50000000       0.125
 
 position of ions in fractional coordinates (direct lattice) 
   0.12629700  0.12228200  0.12539600
   0.62629700  0.12228200  0.12539600
   0.12629700  0.62228200  0.12539600
   0.62629700  0.62228200  0.12539600
   0.37370300  0.37228200  0.12460400
   0.87370300  0.37228200  0.12460400
   0.37370300  0.87228200  0.12460400
   0.87370300  0.87228200  0.12460400
   0.12500000  0.37237800  0.87500000
   0.62500000  0.37237800  0.87500000
   0.12500000  0.87237800  0.87500000
   0.62500000  0.87237800  0.87500000
   0.37500000  0.12433000  0.87500000
   0.87500000  0.12433000  0.87500000
   0.37500000  0.62433000  0.87500000
   0.87500000  0.62433000  0.87500000
   0.12370300  0.12228200  0.62460400
   0.62370300  0.12228200  0.62460400
   0.12370300  0.62228200  0.62460400
   0.62370300  0.62228200  0.62460400
   0.37629700  0.37228200  0.62539600
   0.87629700  0.37228200  0.62539600
   0.37629700  0.87228200  0.62539600
   0.87629700  0.87228200  0.62539600
   0.37500000  0.12237800  0.37500000
   0.87500000  0.12237800  0.37500000
   0.37500000  0.62237800  0.37500000
   0.87500000  0.62237800  0.37500000
   0.12500000  0.37433000  0.37500000
   0.62500000  0.37433000  0.37500000
   0.12500000  0.87433000  0.37500000
   0.62500000  0.87433000  0.37500000
   0.99895300  0.00220500  0.50001000
   0.49895300  0.00220500  0.50001000
   0.99895300  0.50220500  0.50001000
   0.49895300  0.50220500  0.50001000
   0.25104700  0.00220500  0.24999000
   0.75104700  0.00220500  0.24999000
   0.25104700  0.50220500  0.24999000
   0.75104700  0.50220500  0.24999000
   0.24895300  0.25220500  0.00001000
   0.74895300  0.25220500  0.00001000
   0.24895300  0.75220500  0.00001000
   0.74895300  0.75220500  0.00001000
   0.00104700  0.25220500  0.74999000
   0.50104700  0.25220500  0.74999000
   0.00104700  0.75220500  0.74999000
   0.50104700  0.75220500  0.74999000
   0.99937200  0.00215900  0.00038700
   0.49937200  0.00215900  0.00038700
   0.99937200  0.50215900  0.00038700
   0.49937200  0.50215900  0.00038700
   0.25062800  0.00215900  0.74961300
   0.75062800  0.00215900  0.74961300
   0.25062800  0.50215900  0.74961300
   0.75062800  0.50215900  0.74961300
   0.24937200  0.25215900  0.50038700
   0.74937200  0.25215900  0.50038700
   0.24937200  0.75215900  0.50038700
   0.74937200  0.75215900  0.50038700
   0.00062800  0.25215900  0.24961300
   0.50062800  0.25215900  0.24961300
   0.00062800  0.75215900  0.24961300
   0.50062800  0.75215900  0.24961300
 
 position of ions in cartesian coordinates  (Angst):
   1.35447997  1.28664301  1.33231899
   6.60860447  1.28664301  1.44235199
   1.35447997  6.54760951  1.33231899
   6.60860447  6.54760951  1.44235199
   3.95411128  3.91712626  1.37852526
   9.20823578  3.91712626  1.48855826
   3.95411128  9.17809276  1.37852526
   9.20823578  9.17809276  1.48855826
   1.50416475  3.91813637  9.13034763
   6.75828925  3.91813637  9.24038063
   1.50416475  9.17910287  9.13034763
   6.75828925  9.17910287  9.24038063
   4.13122700  1.30819193  9.18536412
   9.38535150  1.30819193  9.29539713
   4.13122700  6.56915843  9.18536412
   9.38535150  6.56915843  9.29539713
   1.43598253  1.28664301  6.52513126
   6.69010703  1.28664301  6.63516426
   1.43598253  6.54760951  6.52513126
   6.69010703  6.54760951  6.63516426
   4.09047572  3.91712626  6.58895799
   9.34460022  3.91712626  6.69899099
   4.09047572  9.17809276  6.58895799
   9.34460022  9.17809276  6.69899099
   4.02229350  1.28765312  3.98374163
   9.27641800  1.28765312  4.09377463
   4.02229350  6.54861962  3.98374163
   9.27641800  6.54861962  4.09377463
   1.39523125  3.93867518  3.92872513
   6.64935575  3.93867518  4.03875813
   1.39523125  9.19964168  3.92872513
   6.64935575  9.19964168  4.03875813
  10.60618254  0.02320086  5.42156212
   5.35205804  0.02320086  5.31152912
  10.60618254  5.28416736  5.42156212
   5.35205804  5.28416736  5.31152912
   2.69252896  0.02320086  2.65595413
   7.94665346  0.02320086  2.76598713
   2.69252896  5.28416736  2.65595413
   7.94665346  5.28416736  2.76598713
   2.61606229  2.65368411  0.05489012
   7.87018679  2.65368411  0.16492312
   2.61606229  7.91465061  0.05489012
   7.87018679  7.91465061  0.16492312
   0.17440021  2.65368411  7.80256013
   5.42852471  2.65368411  7.91259313
   0.17440021  7.91465061  7.80256013
   5.42852471  7.91465061  7.91259313
  10.50173413  0.02271685  0.22395385
   5.24760963  0.02271685  0.11392085
  10.50173413  5.28368335  0.22395385
   5.24760963  5.28368335  0.11392085
   2.79697737  0.02271685  7.85356240
   8.05110187  0.02271685  7.96359540
   2.79697737  5.28368335  7.85356240
   8.05110187  5.28368335  7.96359540
   2.72948088  2.65320010  5.26052685
   7.98360538  2.65320010  5.37055985
   2.72948088  7.91416660  5.26052685
   7.98360538  7.91416660  5.37055985
   0.06098162  2.65320010  2.59692340
   5.31510612  2.65320010  2.70695640
   0.06098162  7.91416660  2.59692340
   5.31510612  7.91416660  2.70695640
 


--------------------------------------------------------------------------------------------------------


 k-point  1 :   0.0000 0.0000 0.0000  plane waves:   48403
 k-point  2 :   0.5000 0.0000 0.0000  plane waves:   48368
 k-point  3 :   0.0000 0.5000 0.0000  plane waves:   48386
 k-point  4 :   0.5000 0.5000 0.0000  plane waves:   48396
 k-point  5 :   0.0000 0.0000 0.5000  plane waves:   48330
 k-point  6 :   0.5000 0.0000 0.5000  plane waves:   48376
 k-point  7 :   0.0000 0.5000 0.5000  plane waves:   48332
 k-point  8 :   0.5000 0.5000 0.5000  plane waves:   48272

 maximum and minimum number of plane-waves per node :     48403    48272

 maximum number of plane-waves:     48403
 maximum index in each direction: 
   IXMAX=   22   IYMAX=   22   IZMAX=   22
   IXMIN=  -23   IYMIN=  -23   IZMIN=  -22


 serial   3D FFT for wavefunctions
 parallel 3D FFT for charge:
    minimum data exchange during FFTs selected (reduces bandwidth)


 total amount of memory used by VASP MPI-rank0   349631. kBytes
=======================================================================

   base      :      30000. kBytes
   nonl-proj :     217907. kBytes
   fftplans  :       4588. kBytes
   grid      :      69719. kBytes
   one-center:       1990. kBytes
   wavefun   :      25427. kBytes
 
     INWAV:  cpu time    0.0000: real time    0.0000
 Broyden mixing: mesh for mixing (old mesh)
   NGX = 45   NGY = 45   NGZ = 45
  (NGX  =192   NGY  =192   NGZ  =180)
  gives a total of  91125 points

 initial charge density was supplied:
 number of electron     687.9999838 magnetization      -0.0000000
 keeping initial charge density in first step


--------------------------------------------------------------------------------------------------------


 Maximum index for augmentation-charges          897 (set IRDMAX)


--------------------------------------------------------------------------------------------------------


 First call to EWALD:  gamma=   0.169
 Maximum number of real-space cells 3x 3x 3
 Maximum number of reciprocal cells 3x 3x 3

    FEWALD:  cpu time    0.0029: real time    0.0029


--------------------------------------- Iteration      1(   1)  ---------------------------------------


    POTLOK:  cpu time    0.3227: real time    0.3530
    SETDIJ:  cpu time    0.0145: real time    0.0146
     EDDAV:  cpu time   83.9547: real time   84.6378
 BZINTS: Fermi energy: 14.688910;688.000000 electrons
         Band energy:***********;  BLOECHL correction: -0.014109
       DOS:  cpu time    0.0389: real time    0.0391
    --------------------------------------------
      LOOP:  cpu time   84.3308: real time   85.0445

 eigenvalue-minimisations  : 16384
 total energy-change (2. order) : 0.6011621E+04  (-0.5184149E+05)
 number of electron     687.9999838 magnetization      -0.0000000
 augmentation part      687.9999838 magnetization      -0.0000000

 Free energy of the ion-electron system (eV)
  ---------------------------------------------------
  alpha Z        PSCENC =      2358.03058199
  Ewald energy   TEWEN  =    -62491.22958726
  -Hartree energ DENC   =    -42718.91193183
  -exchange      EXHF   =         0.00000000
  -V(xc)+E(xc)   XCENC  =      3280.51671385
  PAW double counting   =    112095.85910443  -115786.62766005
  entropy T*S    EENTRO =         0.00000000
  eigenvalues    EBANDS =     -4746.08132771
  atomic energy  EATOM  =    114020.06510763
  Solvation  Ediel_sol  =         0.00000000
  ---------------------------------------------------
  free energy    TOTEN  =      6011.62100105 eV

  energy without entropy =     6011.62100105  energy(sigma->0) =     6011.62100105


--------------------------------------------------------------------------------------------------------




--------------------------------------- Iteration      1(   2)  ---------------------------------------


     EDDAV:  cpu time   97.6319: real time   98.3618
 BZINTS: Fermi energy:  5.181168;688.000000 electrons
         Band energy:***********;  BLOECHL correction: -0.065325
       DOS:  cpu time    0.0335: real time    0.0336
    --------------------------------------------
      LOOP:  cpu time   97.6653: real time   98.3954

 eigenvalue-minimisations  : 17920
 total energy-change (2. order) :-0.6131954E+04  (-0.6025691E+04)
 number of electron     687.9999838 magnetization      -0.0000000
 augmentation part      687.9999838 magnetization      -0.0000000

 Free energy of the ion-electron system (eV)
  ---------------------------------------------------
  alpha Z        PSCENC =      2358.03058199
  Ewald energy   TEWEN  =    -62491.22958726
  -Hartree energ DENC   =    -42718.91193183
  -exchange      EXHF   =         0.00000000
  -V(xc)+E(xc)   XCENC  =      3280.51671385
  PAW double counting   =    112095.85910443  -115786.62766005
  entropy T*S    EENTRO =         0.00000000
  eigenvalues    EBANDS =    -10878.03493483
  atomic energy  EATOM  =    114020.06510763
  Solvation  Ediel_sol  =         0.00000000
  ---------------------------------------------------
  free energy    TOTEN  =      -120.33260607 eV

  energy without entropy =     -120.33260607  energy(sigma->0) =     -120.33260607


--------------------------------------------------------------------------------------------------------




--------------------------------------- Iteration      1(   3)  ---------------------------------------


     EDDAV:  cpu time  160.0238: real time  161.1113
 BZINTS: Fermi energy:  4.876306;688.000000 electrons
         Band energy:***********;  BLOECHL correction:  0.000000
       DOS:  cpu time    0.0058: real time    0.0059
    --------------------------------------------
      LOOP:  cpu time  160.0297: real time  161.1172

 eigenvalue-minimisations  : 23040
 total energy-change (2. order) :-0.2485325E+03  (-0.2477293E+03)
 number of electron     687.9999838 magnetization      -0.0000000
 augmentation part      687.9999838 magnetization      -0.0000000

 Free energy of the ion-electron system (eV)
  ---------------------------------------------------
  alpha Z        PSCENC =      2358.03058199
  Ewald energy   TEWEN  =    -62491.22958726
  -Hartree energ DENC   =    -42718.91193183
  -exchange      EXHF   =         0.00000000
  -V(xc)+E(xc)   XCENC  =      3280.51671385
  PAW double counting   =    112095.85910443  -115786.62766005
  entropy T*S    EENTRO =         0.00000000
  eigenvalues    EBANDS =    -11126.56743475
  atomic energy  EATOM  =    114020.06510763
  Solvation  Ediel_sol  =         0.00000000
  ---------------------------------------------------
  free energy    TOTEN  =      -368.86510599 eV

  energy without entropy =     -368.86510599  energy(sigma->0) =     -368.86510599


--------------------------------------------------------------------------------------------------------




--------------------------------------- Iteration      1(   4)  ---------------------------------------


     EDDAV:  cpu time  120.9064: real time  121.7751
 BZINTS: Fermi energy:  4.831914;688.000000 electrons
         Band energy:***********;  BLOECHL correction:  0.000000
       DOS:  cpu time    0.0075: real time    0.0076
    --------------------------------------------
      LOOP:  cpu time  120.9139: real time  121.7827

 eigenvalue-minimisations  : 19456
 total energy-change (2. order) :-0.3404916E+01  (-0.3404778E+01)
 number of electron     687.9999838 magnetization      -0.0000000
 augmentation part      687.9999838 magnetization      -0.0000000

 Free energy of the ion-electron system (eV)
  ---------------------------------------------------
  alpha Z        PSCENC =      2358.03058199
  Ewald energy   TEWEN  =    -62491.22958726
  -Hartree energ DENC   =    -42718.91193183
  -exchange      EXHF   =         0.00000000
  -V(xc)+E(xc)   XCENC  =      3280.51671385
  PAW double counting   =    112095.85910443  -115786.62766005
  entropy T*S    EENTRO =         0.00000000
  eigenvalues    EBANDS =    -11129.97235037
  atomic energy  EATOM  =    114020.06510763
  Solvation  Ediel_sol  =         0.00000000
  ---------------------------------------------------
  free energy    TOTEN  =      -372.27002162 eV

  energy without entropy =     -372.27002162  energy(sigma->0) =     -372.27002162


--------------------------------------------------------------------------------------------------------




--------------------------------------- Iteration      1(   5)  ---------------------------------------


     EDDAV:  cpu time  148.1662: real time  149.1891
 BZINTS: Fermi energy:  4.769713;688.000000 electrons
         Band energy:***********;  BLOECHL correction:  0.000000
       DOS:  cpu time    0.0074: real time    0.0075
    CHARGE:  cpu time    1.3816: real time    1.3899
    MIXING:  cpu time    0.0042: real time    0.0043
    --------------------------------------------
      LOOP:  cpu time  149.5595: real time  150.5907

 eigenvalue-minimisations  : 21760
 total energy-change (2. order) :-0.1065383E+00  (-0.1065377E+00)
 number of electron     688.0000155 magnetization      -0.0000000
 augmentation part      285.6039210 magnetization      -0.0000000

 Broyden mixing:
  rms(total) = 0.51787E+01    rms(broyden)= 0.51781E+01
  rms(prec ) = 0.58186E+01
  weight for this iteration     100.00

 Free energy of the ion-electron system (eV)
  ---------------------------------------------------
  alpha Z        PSCENC =      2358.03058199
  Ewald energy   TEWEN  =    -62491.22958726
  -Hartree energ DENC   =    -42718.91193183
  -exchange      EXHF   =         0.00000000
  -V(xc)+E(xc)   XCENC  =      3280.51671385
  PAW double counting   =    112095.85910443  -115786.62766005
  entropy T*S    EENTRO =         0.00000000
  eigenvalues    EBANDS =    -11130.07888865
  atomic energy  EATOM  =    114020.06510763
  Solvation  Ediel_sol  =         0.00000000
  ---------------------------------------------------
  free energy    TOTEN  =      -372.37655989 eV

  energy without entropy =     -372.37655989  energy(sigma->0) =     -372.37655989


--------------------------------------------------------------------------------------------------------




--------------------------------------- Iteration      1(   6)  ---------------------------------------


    POTLOK:  cpu time    0.1236: real time    0.1246
    SETDIJ:  cpu time    0.0127: real time    0.0127
     EDDAV:  cpu time  176.9851: real time  178.1963
 BZINTS: Fermi energy:  4.917217;688.000000 electrons
         Band energy:***********;  BLOECHL correction:  0.000000
       DOS:  cpu time    0.0058: real time    0.0058
    CHARGE:  cpu time    1.3796: real time    1.3880
    MIXING:  cpu time    0.0027: real time    0.1711
    --------------------------------------------
      LOOP:  cpu time  178.5095: real time  179.8987

 eigenvalue-minimisations  : 25856
 total energy-change (2. order) : 0.3333264E+02  (-0.4330668E+01)
 number of electron     688.0000153 magnetization      -0.0000000
 augmentation part      280.0080567 magnetization      -0.0000000

 Broyden mixing:
  rms(total) = 0.29720E+01    rms(broyden)= 0.29719E+01
  rms(prec ) = 0.33217E+01
  weight for this iteration     100.00

 eigenvalues of (default mixing * dielectric matrix)
  average eigenvalue GAMMA=   0.7382
  0.7382

 Free energy of the ion-electron system (eV)
  ---------------------------------------------------
  alpha Z        PSCENC =      2358.03058199
  Ewald energy   TEWEN  =    -62491.22958726
  -Hartree energ DENC   =    -43031.60862070
  -exchange      EXHF   =         0.00000000
  -V(xc)+E(xc)   XCENC  =      3287.71997833
  PAW double counting   =    115642.06473980  -119372.99249790
  entropy T*S    EENTRO =         0.00000000
  eigenvalues    EBANDS =    -10751.09362027
  atomic energy  EATOM  =    114020.06510763
  Solvation  Ediel_sol  =         0.00000000
  ---------------------------------------------------
  free energy    TOTEN  =      -339.04391837 eV

  energy without entropy =     -339.04391837  energy(sigma->0) =     -339.04391837


--------------------------------------------------------------------------------------------------------




--------------------------------------- Iteration      1(   7)  ---------------------------------------


    POTLOK:  cpu time    0.1231: real time    0.1242
    SETDIJ:  cpu time    0.0128: real time    0.0129
     EDDAV:  cpu time  142.0298: real time  143.0284
 BZINTS: Fermi energy:  4.926220;688.000000 electrons
         Band energy:***********;  BLOECHL correction:  0.000000
       DOS:  cpu time    0.0064: real time    0.0065
    CHARGE:  cpu time    1.3780: real time    1.3866
    MIXING:  cpu time    0.0015: real time    0.0038
    --------------------------------------------
      LOOP:  cpu time  143.5517: real time  144.5623

 eigenvalue-minimisations  : 21760
 total energy-change (2. order) : 0.8876511E+01  (-0.2705305E+01)
 number of electron     688.0000154 magnetization      -0.0000000
 augmentation part      283.4472440 magnetization      -0.0000000

 Broyden mixing:
  rms(total) = 0.25415E+01    rms(broyden)= 0.25415E+01
  rms(prec ) = 0.27011E+01
  weight for this iteration     100.00

 eigenvalues of (default mixing * dielectric matrix)
  average eigenvalue GAMMA=   0.8540
  1.2540  0.4539

 Free energy of the ion-electron system (eV)
  ---------------------------------------------------
  alpha Z        PSCENC =      2358.03058199
  Ewald energy   TEWEN  =    -62491.22958726
  -Hartree energ DENC   =    -42867.87283962
  -exchange      EXHF   =         0.00000000
  -V(xc)+E(xc)   XCENC  =      3285.86709838
  PAW double counting   =    114919.56473585  -118604.26765394
  entropy T*S    EENTRO =         0.00000000
  eigenvalues    EBANDS =    -10950.32485081
  atomic energy  EATOM  =    114020.06510763
  Solvation  Ediel_sol  =         0.00000000
  ---------------------------------------------------
  free energy    TOTEN  =      -330.16740778 eV

  energy without entropy =     -330.16740778  energy(sigma->0) =     -330.16740778


--------------------------------------------------------------------------------------------------------




--------------------------------------- Iteration      1(   8)  ---------------------------------------


    POTLOK:  cpu time    0.1192: real time    0.1235
    SETDIJ:  cpu time    0.0128: real time    0.0128
     EDDAV:  cpu time  166.3049: real time  167.4280
 BZINTS: Fermi energy:  4.913325;688.000000 electrons
         Band energy:***********;  BLOECHL correction:  0.000000
       DOS:  cpu time    0.0064: real time    0.0065
    CHARGE:  cpu time    1.3810: real time    1.3893
    MIXING:  cpu time    0.0013: real time    0.0013
    --------------------------------------------
      LOOP:  cpu time  167.8256: real time  168.9614

 eigenvalue-minimisations  : 23552
 total energy-change (2. order) : 0.1988832E+01  (-0.1450041E+01)
 number of electron     688.0000155 magnetization      -0.0000000
 augmentation part      283.1951271 magnetization      -0.0000000

 Broyden mixing:
  rms(total) = 0.95046E+00    rms(broyden)= 0.95043E+00
  rms(prec ) = 0.10447E+01
  weight for this iteration     100.00

 eigenvalues of (default mixing * dielectric matrix)
  average eigenvalue GAMMA=   1.0071
  1.8586  0.7018  0.4609

 Free energy of the ion-electron system (eV)
  ---------------------------------------------------
  alpha Z        PSCENC =      2358.03058199
  Ewald energy   TEWEN  =    -62491.22958726
  -Hartree energ DENC   =    -42869.43643164
  -exchange      EXHF   =         0.00000000
  -V(xc)+E(xc)   XCENC  =      3284.61511011
  PAW double counting   =    114091.39115441  -117779.84433423
  entropy T*S    EENTRO =         0.00000000
  eigenvalues    EBANDS =    -10941.77017725
  atomic energy  EATOM  =    114020.06510763
  Solvation  Ediel_sol  =         0.00000000
  ---------------------------------------------------
  free energy    TOTEN  =      -328.17857625 eV

  energy without entropy =     -328.17857625  energy(sigma->0) =     -328.17857625


--------------------------------------------------------------------------------------------------------




--------------------------------------- Iteration      1(   9)  ---------------------------------------


    POTLOK:  cpu time    0.1222: real time    0.1234
    SETDIJ:  cpu time    0.0125: real time    0.0126
     EDDAV:  cpu time  152.3048: real time  153.3623
 BZINTS: Fermi energy:  5.004157;688.000000 electrons
         Band energy:***********;  BLOECHL correction:  0.000000
       DOS:  cpu time    0.0064: real time    0.0065
    CHARGE:  cpu time    1.3789: real time    1.3870
    MIXING:  cpu time    0.0014: real time    0.0014
    --------------------------------------------
      LOOP:  cpu time  153.8262: real time  154.8931

 eigenvalue-minimisations  : 22016
 total energy-change (2. order) : 0.1989400E+00  (-0.6715179E+00)
 number of electron     688.0000154 magnetization      -0.0000000
 augmentation part      282.1052256 magnetization      -0.0000000

 Broyden mixing:
  rms(total) = 0.67064E+00    rms(broyden)= 0.67062E+00
  rms(prec ) = 0.77278E+00
  weight for this iteration     100.00

 eigenvalues of (default mixing * dielectric matrix)
  average eigenvalue GAMMA=   0.9134
  1.8599  0.8034  0.5905  0.3998

 Free energy of the ion-electron system (eV)
  ---------------------------------------------------
  alpha Z        PSCENC =      2358.03058199
  Ewald energy   TEWEN  =    -62491.22958726
  -Hartree energ DENC   =    -42966.08625393
  -exchange      EXHF   =         0.00000000
  -V(xc)+E(xc)   XCENC  =      3287.69719936
  PAW double counting   =    113626.26614767  -117324.77405358
  entropy T*S    EENTRO =         0.00000000
  eigenvalues    EBANDS =    -10837.94877812
  atomic energy  EATOM  =    114020.06510763
  Solvation  Ediel_sol  =         0.00000000
  ---------------------------------------------------
  free energy    TOTEN  =      -327.97963624 eV

  energy without entropy =     -327.97963624  energy(sigma->0) =     -327.97963624


--------------------------------------------------------------------------------------------------------




--------------------------------------- Iteration      1(  10)  ---------------------------------------


    POTLOK:  cpu time    0.1204: real time    0.1238
    SETDIJ:  cpu time    0.0127: real time    0.0128
     EDDAV:  cpu time  168.5821: real time  169.7167
 BZINTS: Fermi energy:  4.955682;688.000000 electrons
         Band energy:***********;  BLOECHL correction:  0.000000
       DOS:  cpu time    0.0065: real time    0.0065
    CHARGE:  cpu time    1.3776: real time    1.3871
    MIXING:  cpu time    0.0013: real time    0.0013
    --------------------------------------------
      LOOP:  cpu time  170.1007: real time  171.2483

 eigenvalue-minimisations  : 23552
 total energy-change (2. order) : 0.7195972E-01  (-0.3935634E+00)
 number of electron     688.0000155 magnetization       0.0000000
 augmentation part      281.9856394 magnetization       0.0000000

 Broyden mixing:
  rms(total) = 0.42921E+00    rms(broyden)= 0.42919E+00
  rms(prec ) = 0.49342E+00
  weight for this iteration     100.00

 eigenvalues of (default mixing * dielectric matrix)
  average eigenvalue GAMMA=   0.9877
  1.7225  1.7225  0.6339  0.5462  0.3135

 Free energy of the ion-electron system (eV)
  ---------------------------------------------------
  alpha Z        PSCENC =      2358.03058199
  Ewald energy   TEWEN  =    -62491.22958726
  -Hartree energ DENC   =    -42942.54941368
  -exchange      EXHF   =         0.00000000
  -V(xc)+E(xc)   XCENC  =      3286.34774033
  PAW double counting   =    113257.25709336  -116952.80921550
  entropy T*S    EENTRO =         0.00000000
  eigenvalues    EBANDS =    -10863.01998339
  atomic energy  EATOM  =    114020.06510763
  Solvation  Ediel_sol  =         0.00000000
  ---------------------------------------------------
  free energy    TOTEN  =      -327.90767652 eV

  energy without entropy =     -327.90767652  energy(sigma->0) =     -327.90767652


--------------------------------------------------------------------------------------------------------




--------------------------------------- Iteration      1(  11)  ---------------------------------------


    POTLOK:  cpu time    0.1189: real time    0.1231
    SETDIJ:  cpu time    0.0128: real time    0.0128
     EDDAV:  cpu time  117.2777: real time  118.1240
 BZINTS: Fermi energy:  4.961519;688.000000 electrons
         Band energy:***********;  BLOECHL correction:  0.000000
       DOS:  cpu time    0.0065: real time    0.0065
    CHARGE:  cpu time    1.3794: real time    1.3882
    MIXING:  cpu time    0.0017: real time    0.0030
    --------------------------------------------
      LOOP:  cpu time  118.7969: real time  119.6576

 eigenvalue-minimisations  : 19712
 total energy-change (2. order) : 0.1038753E-01  (-0.4998374E-01)
 number of electron     688.0000155 magnetization       0.0000000
 augmentation part      282.2412052 magnetization       0.0000000

 Broyden mixing:
  rms(total) = 0.15108E+00    rms(broyden)= 0.15107E+00
  rms(prec ) = 0.16307E+00
  weight for this iteration     100.00

 eigenvalues of (default mixing * dielectric matrix)
  average eigenvalue GAMMA=   1.0872
  2.0822  2.0822  0.7888  0.6207  0.6207  0.3287

 Free energy of the ion-electron system (eV)
  ---------------------------------------------------
  alpha Z        PSCENC =      2358.03058199
  Ewald energy   TEWEN  =    -62491.22958726
  -Hartree energ DENC   =    -42934.16511952
  -exchange      EXHF   =         0.00000000
  -V(xc)+E(xc)   XCENC  =      3286.42821059
  PAW double counting   =    112716.41099295  -116409.12522762
  entropy T*S    EENTRO =         0.00000000
  eigenvalues    EBANDS =    -10874.31224775
  atomic energy  EATOM  =    114020.06510763
  Solvation  Ediel_sol  =         0.00000000
  ---------------------------------------------------
  free energy    TOTEN  =      -327.89728899 eV

  energy without entropy =     -327.89728899  energy(sigma->0) =     -327.89728899


--------------------------------------------------------------------------------------------------------




--------------------------------------- Iteration      1(  12)  ---------------------------------------


    POTLOK:  cpu time    0.1212: real time    0.1236
    SETDIJ:  cpu time    0.0127: real time    0.0127
     EDDAV:  cpu time  206.2172: real time  207.5736
 BZINTS: Fermi energy:  4.967390;688.000000 electrons
         Band energy:***********;  BLOECHL correction:  0.000000
       DOS:  cpu time    0.0066: real time    0.0066
    CHARGE:  cpu time    1.3760: real time    1.3841
    MIXING:  cpu time    0.0015: real time    0.0015
    --------------------------------------------
      LOOP:  cpu time  207.7350: real time  209.1020

 eigenvalue-minimisations  : 27648
 total energy-change (2. order) :-0.2659768E-01  (-0.1518748E-01)
 number of electron     688.0000155 magnetization       0.0000000
 augmentation part      282.2249794 magnetization       0.0000000

 Broyden mixing:
  rms(total) = 0.71545E-01    rms(broyden)= 0.71539E-01
  rms(prec ) = 0.79753E-01
  weight for this iteration     100.00

 eigenvalues of (default mixing * dielectric matrix)
  average eigenvalue GAMMA=   1.1267
  2.2679  2.2679  1.0837  0.6926  0.6220  0.6220  0.3306

 Free energy of the ion-electron system (eV)
  ---------------------------------------------------
  alpha Z        PSCENC =      2358.03058199
  Ewald energy   TEWEN  =    -62491.22958726
  -Hartree energ DENC   =    -42940.10022898
  -exchange      EXHF   =         0.00000000
  -V(xc)+E(xc)   XCENC  =      3286.58922689
  PAW double counting   =    112433.75382878  -116127.73402203
  entropy T*S    EENTRO =         0.00000000
  eigenvalues    EBANDS =    -10867.29879368
  atomic energy  EATOM  =    114020.06510763
  Solvation  Ediel_sol  =         0.00000000
  ---------------------------------------------------
  free energy    TOTEN  =      -327.92388667 eV

  energy without entropy =     -327.92388667  energy(sigma->0) =     -327.92388667


--------------------------------------------------------------------------------------------------------




--------------------------------------- Iteration      1(  13)  ---------------------------------------


    POTLOK:  cpu time    0.1218: real time    0.1227
    SETDIJ:  cpu time    0.0127: real time    0.0128
     EDDAV:  cpu time  103.5306: real time  104.2946
 BZINTS: Fermi energy:  4.965395;688.000000 electrons
         Band energy:***********;  BLOECHL correction:  0.000000
       DOS:  cpu time    0.0065: real time    0.0065
    CHARGE:  cpu time    1.3780: real time    1.3864
    MIXING:  cpu time    0.0016: real time    0.0016
    --------------------------------------------
      LOOP:  cpu time  105.0512: real time  105.8246

 eigenvalue-minimisations  : 17920
 total energy-change (2. order) :-0.7028754E-02  (-0.2998857E-02)
 number of electron     688.0000155 magnetization       0.0000000
 augmentation part      282.2267002 magnetization       0.0000000

 Broyden mixing:
  rms(total) = 0.29531E-01    rms(broyden)= 0.29529E-01
  rms(prec ) = 0.31437E-01
  weight for this iteration     100.00

 eigenvalues of (default mixing * dielectric matrix)
  average eigenvalue GAMMA=   1.1287
  2.3119  2.3119  1.2569  0.9180  0.6765  0.6120  0.6120  0.3307

 Free energy of the ion-electron system (eV)
  ---------------------------------------------------
  alpha Z        PSCENC =      2358.03058199
  Ewald energy   TEWEN  =    -62491.22958726
  -Hartree energ DENC   =    -42938.46446340
  -exchange      EXHF   =         0.00000000
  -V(xc)+E(xc)   XCENC  =      3286.53660377
  PAW double counting   =    112314.74269305  -116008.34570372
  entropy T*S    EENTRO =         0.00000000
  eigenvalues    EBANDS =    -10869.26614749
  atomic energy  EATOM  =    114020.06510763
  Solvation  Ediel_sol  =         0.00000000
  ---------------------------------------------------
  free energy    TOTEN  =      -327.93091543 eV

  energy without entropy =     -327.93091543  energy(sigma->0) =     -327.93091543


--------------------------------------------------------------------------------------------------------




--------------------------------------- Iteration      1(  14)  ---------------------------------------


    POTLOK:  cpu time    0.1216: real time    0.1226
    SETDIJ:  cpu time    0.0126: real time    0.0127
     EDDAV:  cpu time  167.7777: real time  168.8955
 BZINTS: Fermi energy:  4.965837;688.000000 electrons
         Band energy:***********;  BLOECHL correction:  0.000000
       DOS:  cpu time    0.0067: real time    0.0067
    CHARGE:  cpu time    1.3819: real time    1.3899
    MIXING:  cpu time    0.0017: real time    0.0017
    --------------------------------------------
      LOOP:  cpu time  169.3021: real time  170.4290

 eigenvalue-minimisations  : 23040
 total energy-change (2. order) :-0.2490218E-02  (-0.5955135E-03)
 number of electron     688.0000155 magnetization       0.0000000
 augmentation part      282.2240676 magnetization       0.0000000

 Broyden mixing:
  rms(total) = 0.18306E-01    rms(broyden)= 0.18305E-01
  rms(prec ) = 0.19192E-01
  weight for this iteration     100.00

 eigenvalues of (default mixing * dielectric matrix)
  average eigenvalue GAMMA=   1.1767
  2.4099  2.4099  1.5305  1.3125  0.3307  0.6135  0.6135  0.7310  0.6384

 Free energy of the ion-electron system (eV)
  ---------------------------------------------------
  alpha Z        PSCENC =      2358.03058199
  Ewald energy   TEWEN  =    -62491.22958726
  -Hartree energ DENC   =    -42939.09814259
  -exchange      EXHF   =         0.00000000
  -V(xc)+E(xc)   XCENC  =      3286.56044342
  PAW double counting   =    112287.18807251  -115981.05689053
  entropy T*S    EENTRO =         0.00000000
  eigenvalues    EBANDS =    -10868.39299081
  atomic energy  EATOM  =    114020.06510763
  Solvation  Ediel_sol  =         0.00000000
  ---------------------------------------------------
  free energy    TOTEN  =      -327.93340564 eV

  energy without entropy =     -327.93340564  energy(sigma->0) =     -327.93340564


--------------------------------------------------------------------------------------------------------




--------------------------------------- Iteration      1(  15)  ---------------------------------------


    POTLOK:  cpu time    0.1216: real time    0.1226
    SETDIJ:  cpu time    0.0128: real time    0.0129
     EDDAV:  cpu time  135.9658: real time  136.9184
 BZINTS: Fermi energy:  4.966103;688.000000 electrons
         Band energy:***********;  BLOECHL correction:  0.000000
       DOS:  cpu time    0.0066: real time    0.0067
    CHARGE:  cpu time    1.3796: real time    1.3878
    MIXING:  cpu time    0.0017: real time    0.0017
    --------------------------------------------
      LOOP:  cpu time  137.4882: real time  138.4500

 eigenvalue-minimisations  : 21504
 total energy-change (2. order) :-0.1398053E-02  (-0.3335006E-03)
 number of electron     688.0000155 magnetization       0.0000000
 augmentation part      282.2192506 magnetization       0.0000000

 Broyden mixing:
  rms(total) = 0.10137E-01    rms(broyden)= 0.10136E-01
  rms(prec ) = 0.10734E-01
  weight for this iteration     100.00

 eigenvalues of (default mixing * dielectric matrix)
  average eigenvalue GAMMA=   1.2170
  2.8971  2.2233  1.8992  1.1376  1.1376  0.3307  0.6105  0.6105  0.7005  0.6232

 Free energy of the ion-electron system (eV)
  ---------------------------------------------------
  alpha Z        PSCENC =      2358.03058199
  Ewald energy   TEWEN  =    -62491.22958726
  -Hartree energ DENC   =    -42939.36735477
  -exchange      EXHF   =         0.00000000
  -V(xc)+E(xc)   XCENC  =      3286.56245296
  PAW double counting   =    112274.75747744  -115968.60071220
  entropy T*S    EENTRO =         0.00000000
  eigenvalues    EBANDS =    -10868.15276949
  atomic energy  EATOM  =    114020.06510763
  Solvation  Ediel_sol  =         0.00000000
  ---------------------------------------------------
  free energy    TOTEN  =      -327.93480370 eV

  energy without entropy =     -327.93480370  energy(sigma->0) =     -327.93480370


--------------------------------------------------------------------------------------------------------




--------------------------------------- Iteration      1(  16)  ---------------------------------------


    POTLOK:  cpu time    0.1211: real time    0.1224
    SETDIJ:  cpu time    0.0127: real time    0.0128
     EDDAV:  cpu time  163.2837: real time  164.3767
 BZINTS: Fermi energy:  4.966144;688.000000 electrons
         Band energy:***********;  BLOECHL correction:  0.000000
       DOS:  cpu time    0.0066: real time    0.0067
    CHARGE:  cpu time    1.3754: real time    1.3833
    MIXING:  cpu time    0.0020: real time    0.0026
    --------------------------------------------
      LOOP:  cpu time  164.8015: real time  165.9045

 eigenvalue-minimisations  : 22528
 total energy-change (2. order) :-0.6260643E-03  (-0.2029240E-03)
 number of electron     688.0000155 magnetization       0.0000000
 augmentation part      282.2258540 magnetization       0.0000000

 Broyden mixing:
  rms(total) = 0.65313E-02    rms(broyden)= 0.65303E-02
  rms(prec ) = 0.70719E-02
  weight for this iteration     100.00

 eigenvalues of (default mixing * dielectric matrix)
  average eigenvalue GAMMA=   1.2814
  3.3640  2.1446  2.1446  1.3708  1.3708  0.3307  0.8288  0.6082  0.6082  0.7071
  0.6180

 Free energy of the ion-electron system (eV)
  ---------------------------------------------------
  alpha Z        PSCENC =      2358.03058199
  Ewald energy   TEWEN  =    -62491.22958726
  -Hartree energ DENC   =    -42939.15791017
  -exchange      EXHF   =         0.00000000
  -V(xc)+E(xc)   XCENC  =      3286.56169840
  PAW double counting   =    112267.89571850  -115961.68779483
  entropy T*S    EENTRO =         0.00000000
  eigenvalues    EBANDS =    -10868.41324401
  atomic energy  EATOM  =    114020.06510763
  Solvation  Ediel_sol  =         0.00000000
  ---------------------------------------------------
  free energy    TOTEN  =      -327.93542976 eV

  energy without entropy =     -327.93542976  energy(sigma->0) =     -327.93542976


--------------------------------------------------------------------------------------------------------




--------------------------------------- Iteration      1(  17)  ---------------------------------------


    POTLOK:  cpu time    0.1228: real time    0.1237
    SETDIJ:  cpu time    0.0127: real time    0.0128
     EDDAV:  cpu time   99.4221: real time  100.1520
 BZINTS: Fermi energy:  4.965997;688.000000 electrons
         Band energy:***********;  BLOECHL correction:  0.000000
       DOS:  cpu time    0.0066: real time    0.0066
    CHARGE:  cpu time    1.3781: real time    1.3858
    MIXING:  cpu time    0.0019: real time    0.0019
    --------------------------------------------
      LOOP:  cpu time  100.9441: real time  101.6828

 eigenvalue-minimisations  : 17408
 total energy-change (2. order) :-0.2327528E-03  (-0.1240744E-03)
 number of electron     688.0000155 magnetization       0.0000000
 augmentation part      282.2228244 magnetization       0.0000000

 Broyden mixing:
  rms(total) = 0.33192E-02    rms(broyden)= 0.33180E-02
  rms(prec ) = 0.35559E-02
  weight for this iteration     100.00

 eigenvalues of (default mixing * dielectric matrix)
  average eigenvalue GAMMA=   1.3700
  4.1563  2.3511  2.3511  1.4884  1.4884  1.0264  0.3307  0.6085  0.6085  0.7247
  0.6983  0.6082

 Free energy of the ion-electron system (eV)
  ---------------------------------------------------
  alpha Z        PSCENC =      2358.03058199
  Ewald energy   TEWEN  =    -62491.22958726
  -Hartree energ DENC   =    -42939.22228355
  -exchange      EXHF   =         0.00000000
  -V(xc)+E(xc)   XCENC  =      3286.56140923
  PAW double counting   =    112274.74410440  -115968.53610049
  entropy T*S    EENTRO =         0.00000000
  eigenvalues    EBANDS =    -10868.34889446
  atomic energy  EATOM  =    114020.06510763
  Solvation  Ediel_sol  =         0.00000000
  ---------------------------------------------------
  free energy    TOTEN  =      -327.93566251 eV

  energy without entropy =     -327.93566251  energy(sigma->0) =     -327.93566251


--------------------------------------------------------------------------------------------------------




--------------------------------------- Iteration      1(  18)  ---------------------------------------


    POTLOK:  cpu time    0.1192: real time    0.1227
    SETDIJ:  cpu time    0.0126: real time    0.0127
     EDDAV:  cpu time  168.6735: real time  169.7930
 BZINTS: Fermi energy:  4.965963;688.000000 electrons
         Band energy:***********;  BLOECHL correction:  0.000000
       DOS:  cpu time    0.0066: real time    0.0067
    CHARGE:  cpu time    1.3816: real time    1.3897
    MIXING:  cpu time    0.0019: real time    0.0019
    --------------------------------------------
      LOOP:  cpu time  170.1954: real time  171.3267

 eigenvalue-minimisations  : 23040
 total energy-change (2. order) :-0.4648959E-04  (-0.3414675E-04)
 number of electron     688.0000155 magnetization       0.0000000
 augmentation part      282.2236386 magnetization       0.0000000

 Broyden mixing:
  rms(total) = 0.16820E-02    rms(broyden)= 0.16812E-02
  rms(prec ) = 0.18512E-02
  weight for this iteration     100.00

 eigenvalues of (default mixing * dielectric matrix)
  average eigenvalue GAMMA=   1.3519
  4.2519  2.4135  2.4135  1.7388  1.1903  1.1903  0.3307  0.8563  0.6067  0.6067
  0.7285  0.6425  0.6048

 Free energy of the ion-electron system (eV)
  ---------------------------------------------------
  alpha Z        PSCENC =      2358.03058199
  Ewald energy   TEWEN  =    -62491.22958726
  -Hartree energ DENC   =    -42939.17444573
  -exchange      EXHF   =         0.00000000
  -V(xc)+E(xc)   XCENC  =      3286.55952999
  PAW double counting   =    112280.67917204  -115974.45614056
  entropy T*S    EENTRO =         0.00000000
  eigenvalues    EBANDS =    -10868.40992710
  atomic energy  EATOM  =    114020.06510763
  Solvation  Ediel_sol  =         0.00000000
  ---------------------------------------------------
  free energy    TOTEN  =      -327.93570900 eV

  energy without entropy =     -327.93570900  energy(sigma->0) =     -327.93570900


--------------------------------------------------------------------------------------------------------




--------------------------------------- Iteration      1(  19)  ---------------------------------------


    POTLOK:  cpu time    0.1201: real time    0.1237
    SETDIJ:  cpu time    0.0126: real time    0.0127
     EDDAV:  cpu time   94.7319: real time   95.4390
 BZINTS: Fermi energy:  4.966000;688.000000 electrons
         Band energy:***********;  BLOECHL correction:  0.000000
       DOS:  cpu time    0.0066: real time    0.0067
    CHARGE:  cpu time    1.3796: real time    1.3876
    MIXING:  cpu time    0.0021: real time    0.0021
    --------------------------------------------
      LOOP:  cpu time   96.2529: real time   96.9717

 eigenvalue-minimisations  : 16896
 total energy-change (2. order) :-0.3044042E-05  (-0.1358102E-05)
 number of electron     688.0000155 magnetization       0.0000000
 augmentation part      282.2234662 magnetization       0.0000000

 Broyden mixing:
[...]
   -.416E+02 0.155E+02 -.988E+00   0.424E+02 -.156E+02 0.997E+00   -.857E+00 0.919E-01 -.111E-01   0.421E-05 0.168E-05 -.135E-05
   -.416E+02 0.155E+02 -.988E+00   0.424E+02 -.156E+02 0.997E+00   -.857E+00 0.919E-01 -.111E-01   0.422E-05 0.168E-05 -.135E-05
   -.416E+02 0.155E+02 -.988E+00   0.424E+02 -.156E+02 0.997E+00   -.857E+00 0.919E-01 -.111E-01   0.421E-05 0.169E-05 -.135E-05
   -.416E+02 0.155E+02 -.988E+00   0.424E+02 -.156E+02 0.997E+00   -.857E+00 0.919E-01 -.111E-01   0.422E-05 0.169E-05 -.135E-05
   0.416E+02 0.155E+02 0.988E+00   -.424E+02 -.156E+02 -.997E+00   0.857E+00 0.919E-01 0.111E-01   -.422E-05 0.169E-05 0.135E-05
   0.416E+02 0.155E+02 0.988E+00   -.424E+02 -.156E+02 -.997E+00   0.857E+00 0.919E-01 0.111E-01   -.422E-05 0.169E-05 0.135E-05
   0.416E+02 0.155E+02 0.988E+00   -.424E+02 -.156E+02 -.997E+00   0.857E+00 0.919E-01 0.111E-01   -.422E-05 0.169E-05 0.135E-05
   0.416E+02 0.155E+02 0.988E+00   -.424E+02 -.156E+02 -.997E+00   0.857E+00 0.919E-01 0.111E-01   -.422E-05 0.169E-05 0.135E-05
   0.218E-07 -.319E+02 -.893E-08   0.103E-12 0.327E+02 -.320E-13   -.344E-24 -.785E+00 -.517E-25   0.263E-11 0.546E-05 0.816E-09
   0.218E-07 -.319E+02 -.894E-08   0.959E-13 0.327E+02 -.746E-13   0.493E-25 -.785E+00 0.103E-24   -.129E-10 0.546E-05 -.815E-09
   0.218E-07 -.319E+02 -.894E-08   0.853E-13 0.327E+02 -.426E-13   -.428E-25 -.785E+00 0.000E+00   0.272E-11 0.547E-05 0.816E-09
   0.218E-07 -.319E+02 -.894E-08   0.639E-13 0.327E+02 -.142E-13   0.298E-24 -.785E+00 0.000E+00   -.129E-10 0.547E-05 -.815E-09
   -.181E-08 0.532E+02 0.168E-06   0.249E-13 -.542E+02 0.373E-13   -.544E-24 0.944E+00 -.724E-24   -.549E-08 0.960E-06 0.112E-09
   -.181E-08 0.532E+02 0.168E-06   0.107E-13 -.542E+02 0.675E-13   0.406E-24 0.944E+00 -.672E-24   0.550E-08 0.960E-06 -.111E-09
   -.181E-08 0.532E+02 0.168E-06   0.426E-13 -.542E+02 0.000E+00   0.792E-25 0.944E+00 -.103E-24   -.549E-08 0.960E-06 0.112E-09
   -.181E-08 0.532E+02 0.168E-06   0.568E-13 -.542E+02 0.284E-13   -.218E-24 0.944E+00 -.207E-24   0.550E-08 0.960E-06 -.111E-09
   0.252E+01 -.141E+02 0.180E+01   -.249E+01 0.135E+02 -.184E+01   -.259E-01 0.564E+00 0.297E-01   -.383E-05 0.433E-04 0.261E-05
   0.252E+01 -.141E+02 0.180E+01   -.249E+01 0.135E+02 -.184E+01   -.259E-01 0.564E+00 0.297E-01   -.381E-05 0.433E-04 0.261E-05
   0.252E+01 -.141E+02 0.180E+01   -.249E+01 0.135E+02 -.184E+01   -.259E-01 0.564E+00 0.297E-01   -.383E-05 0.434E-04 0.260E-05
   0.252E+01 -.141E+02 0.180E+01   -.249E+01 0.135E+02 -.184E+01   -.259E-01 0.564E+00 0.297E-01   -.381E-05 0.434E-04 0.260E-05
   -.252E+01 -.141E+02 -.180E+01   0.249E+01 0.135E+02 0.184E+01   0.259E-01 0.564E+00 -.297E-01   0.381E-05 0.433E-04 -.261E-05
   -.252E+01 -.141E+02 -.180E+01   0.249E+01 0.135E+02 0.184E+01   0.259E-01 0.564E+00 -.297E-01   0.383E-05 0.433E-04 -.261E-05
   -.252E+01 -.141E+02 -.180E+01   0.249E+01 0.135E+02 0.184E+01   0.259E-01 0.564E+00 -.297E-01   0.381E-05 0.434E-04 -.260E-05
   -.252E+01 -.141E+02 -.180E+01   0.249E+01 0.135E+02 0.184E+01   0.259E-01 0.564E+00 -.297E-01   0.383E-05 0.434E-04 -.261E-05
   0.252E+01 -.141E+02 0.180E+01   -.249E+01 0.135E+02 -.184E+01   -.259E-01 0.564E+00 0.297E-01   -.384E-05 0.433E-04 0.261E-05
   0.252E+01 -.141E+02 0.180E+01   -.249E+01 0.135E+02 -.184E+01   -.259E-01 0.564E+00 0.297E-01   -.381E-05 0.433E-04 0.261E-05
   0.252E+01 -.141E+02 0.180E+01   -.249E+01 0.135E+02 -.184E+01   -.259E-01 0.564E+00 0.297E-01   -.384E-05 0.434E-04 0.260E-05
   0.252E+01 -.141E+02 0.180E+01   -.249E+01 0.135E+02 -.184E+01   -.259E-01 0.564E+00 0.297E-01   -.381E-05 0.434E-04 0.261E-05
   -.252E+01 -.141E+02 -.180E+01   0.249E+01 0.135E+02 0.184E+01   0.259E-01 0.564E+00 -.297E-01   0.381E-05 0.433E-04 -.260E-05
   -.252E+01 -.141E+02 -.180E+01   0.249E+01 0.135E+02 0.184E+01   0.259E-01 0.564E+00 -.297E-01   0.383E-05 0.433E-04 -.261E-05
   -.252E+01 -.141E+02 -.180E+01   0.249E+01 0.135E+02 0.184E+01   0.259E-01 0.564E+00 -.297E-01   0.381E-05 0.434E-04 -.260E-05
   -.252E+01 -.141E+02 -.180E+01   0.249E+01 0.135E+02 0.184E+01   0.259E-01 0.564E+00 -.297E-01   0.383E-05 0.434E-04 -.261E-05
   -.374E+01 -.135E+02 0.196E+01   0.368E+01 0.127E+02 -.201E+01   0.659E-01 0.737E+00 0.322E-01   0.795E-05 0.152E-04 0.690E-05
   -.374E+01 -.135E+02 0.196E+01   0.368E+01 0.127E+02 -.201E+01   0.659E-01 0.737E+00 0.322E-01   0.797E-05 0.152E-04 0.690E-05
   -.374E+01 -.135E+02 0.196E+01   0.368E+01 0.127E+02 -.201E+01   0.659E-01 0.737E+00 0.322E-01   0.795E-05 0.153E-04 0.690E-05
   -.374E+01 -.135E+02 0.196E+01   0.368E+01 0.127E+02 -.201E+01   0.659E-01 0.737E+00 0.322E-01   0.797E-05 0.153E-04 0.690E-05
   0.374E+01 -.135E+02 -.196E+01   -.368E+01 0.127E+02 0.201E+01   -.659E-01 0.737E+00 -.322E-01   -.797E-05 0.152E-04 -.690E-05
   0.374E+01 -.135E+02 -.196E+01   -.368E+01 0.127E+02 0.201E+01   -.659E-01 0.737E+00 -.322E-01   -.795E-05 0.152E-04 -.690E-05
   0.374E+01 -.135E+02 -.196E+01   -.368E+01 0.127E+02 0.201E+01   -.659E-01 0.737E+00 -.322E-01   -.797E-05 0.153E-04 -.690E-05
   0.374E+01 -.135E+02 -.196E+01   -.368E+01 0.127E+02 0.201E+01   -.659E-01 0.737E+00 -.322E-01   -.795E-05 0.153E-04 -.690E-05
   -.374E+01 -.135E+02 0.196E+01   0.368E+01 0.127E+02 -.201E+01   0.659E-01 0.737E+00 0.322E-01   0.796E-05 0.152E-04 0.690E-05
   -.374E+01 -.135E+02 0.196E+01   0.368E+01 0.127E+02 -.201E+01   0.659E-01 0.737E+00 0.322E-01   0.797E-05 0.152E-04 0.690E-05
   -.374E+01 -.135E+02 0.196E+01   0.368E+01 0.127E+02 -.201E+01   0.659E-01 0.737E+00 0.322E-01   0.796E-05 0.153E-04 0.690E-05
   -.374E+01 -.135E+02 0.196E+01   0.368E+01 0.127E+02 -.201E+01   0.659E-01 0.737E+00 0.322E-01   0.797E-05 0.153E-04 0.690E-05
   0.374E+01 -.135E+02 -.196E+01   -.368E+01 0.127E+02 0.201E+01   -.659E-01 0.737E+00 -.322E-01   -.797E-05 0.152E-04 -.690E-05
   0.374E+01 -.135E+02 -.196E+01   -.368E+01 0.127E+02 0.201E+01   -.659E-01 0.737E+00 -.322E-01   -.795E-05 0.152E-04 -.690E-05
   0.374E+01 -.135E+02 -.196E+01   -.368E+01 0.127E+02 0.201E+01   -.659E-01 0.737E+00 -.322E-01   -.797E-05 0.153E-04 -.690E-05
   0.374E+01 -.135E+02 -.196E+01   -.368E+01 0.127E+02 0.201E+01   -.659E-01 0.737E+00 -.322E-01   -.795E-05 0.153E-04 -.690E-05
 -----------------------------------------------------------------------------------------------
   0.543E-06 -.236E+02 0.158E-03   0.228E-12 -.437E-12 -.334E-12   0.250E-15 0.236E+02 -.278E-16   0.144E-11 0.102E-02 0.600E-11
 
 
 POSITION                                       TOTAL-FORCE (eV/Angst)
 -----------------------------------------------------------------------------------
      1.35448      1.28664      1.33232         0.000930     -0.009649      0.001977
      6.60860      1.28664      1.44235         0.000930     -0.009649      0.001977
      1.35448      6.54761      1.33232         0.000930     -0.009649      0.001977
      6.60860      6.54761      1.44235         0.000930     -0.009649      0.001977
      3.95411      3.91713      1.37853        -0.000930     -0.009649     -0.001977
      9.20824      3.91713      1.48856        -0.000930     -0.009649     -0.001977
      3.95411      9.17809      1.37853        -0.000930     -0.009649     -0.001977
      9.20824      9.17809      1.48856        -0.000930     -0.009649     -0.001977
      1.50416      3.91814      9.13035        -0.000000     -0.007692     -0.000000
      6.75829      3.91814      9.24038        -0.000000     -0.007692     -0.000000
      1.50416      9.17910      9.13035        -0.000000     -0.007692     -0.000000
      6.75829      9.17910      9.24038        -0.000000     -0.007692     -0.000000
      4.13123      1.30819      9.18536        -0.000000     -0.003107     -0.000000
      9.38535      1.30819      9.29540        -0.000000     -0.003107     -0.000000
      4.13123      6.56916      9.18536        -0.000000     -0.003107     -0.000000
      9.38535      6.56916      9.29540        -0.000000     -0.003107     -0.000000
      1.43598      1.28664      6.52513        -0.000930     -0.009649     -0.001977
      6.69011      1.28664      6.63516        -0.000930     -0.009649     -0.001977
      1.43598      6.54761      6.52513        -0.000930     -0.009649     -0.001977
      6.69011      6.54761      6.63516        -0.000930     -0.009649     -0.001977
      4.09048      3.91713      6.58896         0.000930     -0.009649      0.001977
      9.34460      3.91713      6.69899         0.000930     -0.009649      0.001977
      4.09048      9.17809      6.58896         0.000930     -0.009649      0.001977
      9.34460      9.17809      6.69899         0.000930     -0.009649      0.001977
      4.02229      1.28765      3.98374        -0.000000     -0.007692     -0.000000
      9.27642      1.28765      4.09377        -0.000000     -0.007692     -0.000000
      4.02229      6.54862      3.98374        -0.000000     -0.007692     -0.000000
      9.27642      6.54862      4.09377        -0.000000     -0.007692     -0.000000
      1.39523      3.93868      3.92873        -0.000000     -0.003107     -0.000000
      6.64936      3.93868      4.03876        -0.000000     -0.003107     -0.000000
      1.39523      9.19964      3.92873        -0.000000     -0.003107     -0.000000
      6.64936      9.19964      4.03876        -0.000000     -0.003107     -0.000000
     10.60618      0.02320      5.42156         0.004735      0.007374     -0.008989
      5.35206      0.02320      5.31153         0.004735      0.007374     -0.008989
     10.60618      5.28417      5.42156         0.004735      0.007374     -0.008989
      5.35206      5.28417      5.31153         0.004735      0.007374     -0.008989
      2.69253      0.02320      2.65595        -0.004735      0.007374      0.008989
      7.94665      0.02320      2.76599        -0.004735      0.007374      0.008989
      2.69253      5.28417      2.65595        -0.004735      0.007374      0.008989
      7.94665      5.28417      2.76599        -0.004735      0.007374      0.008989
      2.61606      2.65368      0.05489         0.004735      0.007374     -0.008989
      7.87019      2.65368      0.16492         0.004735      0.007374     -0.008989
      2.61606      7.91465      0.05489         0.004735      0.007374     -0.008989
      7.87019      7.91465      0.16492         0.004735      0.007374     -0.008989
      0.17440      2.65368      7.80256        -0.004735      0.007374      0.008989
      5.42852      2.65368      7.91259        -0.004735      0.007374      0.008989
      0.17440      7.91465      7.80256        -0.004735      0.007374      0.008989
      5.42852      7.91465      7.91259        -0.004735      0.007374      0.008989
     10.50173      0.02272      0.22395         0.006444      0.007675     -0.019031
      5.24761      0.02272      0.11392         0.006444      0.007675     -0.019031
     10.50173      5.28368      0.22395         0.006444      0.007675     -0.019031
      5.24761      5.28368      0.11392         0.006444      0.007675     -0.019031
      2.79698      0.02272      7.85356        -0.006444      0.007675      0.019031
      8.05110      0.02272      7.96360        -0.006444      0.007675      0.019031
      2.79698      5.28368      7.85356        -0.006444      0.007675      0.019031
      8.05110      5.28368      7.96360        -0.006444      0.007675      0.019031
      2.72948      2.65320      5.26053         0.006444      0.007675     -0.019031
      7.98361      2.65320      5.37056         0.006444      0.007675     -0.019031
      2.72948      7.91417      5.26053         0.006444      0.007675     -0.019031
      7.98361      7.91417      5.37056         0.006444      0.007675     -0.019031
      0.06098      2.65320      2.59692        -0.006444      0.007675      0.019031
      5.31511      2.65320      2.70696        -0.006444      0.007675      0.019031
      0.06098      7.91417      2.59692        -0.006444      0.007675      0.019031
      5.31511      7.91417      2.70696        -0.006444      0.007675      0.019031
 -----------------------------------------------------------------------------------
    total drift:                                0.000001     -0.008469      0.000158


--------------------------------------------------------------------------------------------------------



  FREE ENERGIE OF THE ION-ELECTRON SYSTEM (eV)
  ---------------------------------------------------
  free  energy   TOTEN  =      -327.93571462 eV

  energy  without entropy=     -327.93571462  energy(sigma->0) =     -327.93571462
 


--------------------------------------------------------------------------------------------------------


    POTLOK:  cpu time    0.1320: real time    0.1326


--------------------------------------------------------------------------------------------------------


 writing wavefunctions
     LOOP+:  cpu time 3853.7091: real time 3880.8694
    4ORBIT:  cpu time    0.0000: real time    0.0000
 


 total charge     
 
# of ion       s       p       d       tot
------------------------------------------
    1        1.314   2.410   0.000   3.724
    2        1.314   2.410   0.000   3.724
    3        1.314   2.410   0.000   3.724
    4        1.314   2.410   0.000   3.724
    5        1.314   2.410   0.000   3.724
    6        1.314   2.410   0.000   3.724
    7        1.314   2.410   0.000   3.724
    8        1.314   2.410   0.000   3.724
    9        1.314   2.407   0.000   3.722
   10        1.314   2.407   0.000   3.722
   11        1.314   2.407   0.000   3.722
   12        1.314   2.407   0.000   3.722
   13        1.313   2.412   0.000   3.724
   14        1.313   2.412   0.000   3.724
   15        1.313   2.412   0.000   3.724
   16        1.313   2.412   0.000   3.724
   17        1.314   2.410   0.000   3.724
   18        1.314   2.410   0.000   3.724
   19        1.314   2.410   0.000   3.724
   20        1.314   2.410   0.000   3.724
   21        1.314   2.410   0.000   3.724
   22        1.314   2.410   0.000   3.724
   23        1.314   2.410   0.000   3.724
   24        1.314   2.410   0.000   3.724
   25        1.314   2.407   0.000   3.722
   26        1.314   2.407   0.000   3.722
   27        1.314   2.407   0.000   3.722
   28        1.314   2.407   0.000   3.722
   29        1.313   2.412   0.000   3.724
   30        1.313   2.412   0.000   3.724
   31        1.313   2.412   0.000   3.724
   32        1.313   2.412   0.000   3.724
   33        0.260   6.202   8.917  15.378
   34        0.260   6.202   8.917  15.378
   35        0.260   6.202   8.917  15.378
   36        0.260   6.202   8.917  15.378
   37        0.260   6.202   8.917  15.378
   38        0.260   6.202   8.917  15.378
   39        0.260   6.202   8.917  15.378
   40        0.260   6.202   8.917  15.378
   41        0.260   6.202   8.917  15.378
   42        0.260   6.202   8.917  15.378
   43        0.260   6.202   8.917  15.378
   44        0.260   6.202   8.917  15.378
   45        0.260   6.202   8.917  15.378
   46        0.260   6.202   8.917  15.378
   47        0.260   6.202   8.917  15.378
   48        0.260   6.202   8.917  15.378
   49        0.350   6.351   5.821  12.521
   50        0.350   6.351   5.821  12.521
   51        0.350   6.351   5.821  12.521
   52        0.350   6.351   5.821  12.521
   53        0.350   6.351   5.821  12.521
   54        0.350   6.351   5.821  12.521
   55        0.350   6.351   5.821  12.521
   56        0.350   6.351   5.821  12.521
   57        0.350   6.351   5.821  12.521
   58        0.350   6.351   5.821  12.521
   59        0.350   6.351   5.821  12.521
   60        0.350   6.351   5.821  12.521
   61        0.350   6.351   5.821  12.521
   62        0.350   6.351   5.821  12.521
   63        0.350   6.351   5.821  12.521
   64        0.350   6.351   5.821  12.521
--------------------------------------------------
tot         51.790 277.960 235.797 565.547
 


 magnetization (x)
 
# of ion       s       p       d       tot
------------------------------------------
    1       -0.000  -0.010   0.000  -0.010
    2       -0.000  -0.010   0.000  -0.010
    3       -0.000  -0.010   0.000  -0.010
    4       -0.000  -0.010   0.000  -0.010
    5        0.000   0.010   0.000   0.010
    6        0.000   0.010   0.000   0.010
    7        0.000   0.010   0.000   0.010
    8        0.000   0.010   0.000   0.010
    9        0.000  -0.000   0.000  -0.000
   10       -0.000  -0.000   0.000  -0.000
   11        0.000  -0.000   0.000  -0.000
   12       -0.000  -0.000   0.000  -0.000
   13        0.000   0.000   0.000   0.000
   14        0.000   0.000   0.000   0.000
   15        0.000   0.000   0.000   0.000
   16        0.000   0.000   0.000   0.000
   17        0.000   0.010   0.000   0.010
   18        0.000   0.010   0.000   0.010
   19        0.000   0.010   0.000   0.010
   20        0.000   0.010   0.000   0.010
   21       -0.000  -0.010   0.000  -0.010
   22       -0.000  -0.010   0.000  -0.010
   23       -0.000  -0.010   0.000  -0.010
   24       -0.000  -0.010   0.000  -0.010
   25        0.000  -0.000   0.000  -0.000
   26       -0.000  -0.000   0.000  -0.000
   27        0.000  -0.000   0.000  -0.000
   28       -0.000  -0.000   0.000  -0.000
   29        0.000   0.000   0.000   0.000
   30        0.000   0.000   0.000   0.000
   31        0.000   0.000   0.000   0.000
   32        0.000   0.000   0.000   0.000
   33        0.000   0.001  -0.001  -0.000
   34        0.000   0.001  -0.001  -0.000
   35        0.000   0.001  -0.001  -0.000
   36        0.000   0.001  -0.001  -0.000
   37       -0.000  -0.001   0.001   0.000
   38       -0.000  -0.001   0.001   0.000
   39       -0.000  -0.001   0.001   0.000
   40       -0.000  -0.001   0.001   0.000
   41        0.000   0.001  -0.001  -0.000
   42        0.000   0.001  -0.001  -0.000
   43        0.000   0.001  -0.001  -0.000
   44        0.000   0.001  -0.001  -0.000
   45       -0.000  -0.001   0.001   0.000
   46       -0.000  -0.001   0.001   0.000
   47       -0.000  -0.001   0.001   0.000
   48       -0.000  -0.001   0.001   0.000
   49        0.020   0.054   3.669   3.743
   50        0.020   0.054   3.669   3.743
   51        0.020   0.054   3.669   3.743
   52        0.020   0.054   3.669   3.743
   53       -0.020  -0.054  -3.669  -3.743
   54       -0.020  -0.054  -3.669  -3.743
   55       -0.020  -0.054  -3.669  -3.743
   56       -0.020  -0.054  -3.669  -3.743
   57        0.020   0.054   3.669   3.743
   58        0.020   0.054   3.669   3.743
   59        0.020   0.054   3.669   3.743
   60        0.020   0.054   3.669   3.743
   61       -0.020  -0.054  -3.669  -3.743
   62       -0.020  -0.054  -3.669  -3.743
   63       -0.020  -0.054  -3.669  -3.743
   64       -0.020  -0.054  -3.669  -3.743
--------------------------------------------------
tot         -0.000  -0.000  -0.000  -0.000
 
 BZINTS: Fermi energy:  4.966001;688.000000 electrons
         Band energy:***********;  BLOECHL correction:  0.000000

 total amount of memory used by VASP MPI-rank0   349631. kBytes
=======================================================================

   base      :      30000. kBytes
   nonl-proj :     217907. kBytes
   fftplans  :       4588. kBytes
   grid      :      69719. kBytes
   one-center:       1990. kBytes
   wavefun   :      25427. kBytes
 
  
  
 General timing and accounting informations for this job:
 ========================================================
  
                  Total CPU time used (sec):     3912.762
                            User time (sec):     3901.959
                          System time (sec):       10.803
                         Elapsed time (sec):     3941.667
  
                   Maximum memory used (kb):      728892.
                   Average memory used (kb):           0.
  
                          Minor page faults:       277199
                          Major page faults:         5688
                 Voluntary context switches:         7244
