64   
7    

1    
  0.0070710678118655   0.0070710678118655   0.0000000000000000
  -0.0675211800   -0.0668765500   -0.0075819700
   0.0007519600   -0.0003960000   -0.0002215900
   0.0001733600    0.0001901900    0.0003076000
   0.0008949100    0.0002148100    0.0000505100
   0.0052668400    0.0054622200    0.0002000200
  -0.0005349500    0.0010612700   -0.0006573400
  -0.0000204800    0.0001977200    0.0001068900
   0.0022799000    0.0038866700   -0.0005098800
   0.0001732700    0.0026257000   -0.0031852000
   0.0002525100   -0.0007340000   -0.0002574700
  -0.0005954600    0.0008897500    0.0018697000
   0.0002231500   -0.0006749200   -0.0000989500
   0.0031057500    0.0006480600   -0.0032260800
   0.0022145800    0.0007355900    0.0020090400
  -0.0002396900    0.0007438800   -0.0000787000
  -0.0000397700    0.0008602800    0.0000665400
  -0.0007069100   -0.0002397100    0.0002240200
   0.0001587800    0.0002018400    0.0001028900
  -0.0002771600    0.0006080600   -0.0001663500
  -0.0006044800    0.0000529200   -0.0000638600
   0.0006711400   -0.0000760000    0.0001887600
   0.0008562000    0.0001085300    0.0001361400
   0.0005703600    0.0003937200    0.0002596000
   0.0003885300    0.0002102200    0.0002010700
   0.0027559200    0.0000628600    0.0025595700
   0.0016703300   -0.0013954100   -0.0012575800
   0.0001217900   -0.0006045800   -0.0001115900
  -0.0001260700   -0.0003188000   -0.0001210000
  -0.0000554300    0.0030116500    0.0025501200
   0.0003088800    0.0005069700   -0.0000165000
   0.0005276000    0.0032417700   -0.0025377800
  -0.0001109700    0.0006202700    0.0000076600
   0.0000402100   -0.0000336500    0.0002076000
  -0.0000407600    0.0002829400   -0.0000660600
   0.0002025400   -0.0002051300   -0.0000611200
  -0.0000304600   -0.0000316100   -0.0000139000
  -0.0021816600    0.0006850200   -0.0009097100
  -0.0001711400    0.0003064700   -0.0001555600
   0.0002189500   -0.0002726700    0.0001625500
   0.0000146700   -0.0000763100   -0.0000009300
   0.0172955800    0.0178805900   -0.0173096200
  -0.0001020000   -0.0000680100    0.0003045200
  -0.0000529400   -0.0000985600    0.0002180300
  -0.0002643800   -0.0001307600   -0.0002562900
  -0.0000425400    0.0000526500   -0.0000925100
   0.0001301900   -0.0002631200   -0.0002108600
  -0.0001359800   -0.0000153800   -0.0000292600
   0.0000679300   -0.0000622800   -0.0000625700
   0.0310540900    0.0300264200    0.0285930100
  -0.0002082300   -0.0002696500   -0.0000317100
  -0.0002878800   -0.0003194100   -0.0000255800
  -0.0005369400   -0.0005257300    0.0007858000
   0.0004674500    0.0004175300   -0.0006507300
  -0.0005972400   -0.0006749700   -0.0007880500
  -0.0003833700   -0.0000030500   -0.0000013200
  -0.0001941300   -0.0001961300    0.0000507800
   0.0002812100   -0.0000009500   -0.0007305800
  -0.0006503000   -0.0003126000    0.0002437000
   0.0001209800   -0.0005449400    0.0002995000
  -0.0000879200   -0.0001649500    0.0000058100
   0.0030724400   -0.0003442400   -0.0010572400
  -0.0002950800    0.0005950700    0.0008094900
   0.0011190600   -0.0007911000    0.0000848200
  -0.0003555900   -0.0000604400   -0.0000603000

1    
 -0.0070710678118655  -0.0070710678118655   0.0000000000000000
   0.0685755300    0.0669465000    0.0103898900
   0.0004090500    0.0003940800    0.0002276200
   0.0009927000   -0.0001935600   -0.0003118900
   0.0002625300   -0.0002140400   -0.0000420000
  -0.0063379400   -0.0053715500   -0.0001681200
  -0.0006174600   -0.0010807800    0.0006582400
  -0.0011684500   -0.0001835900   -0.0001107400
  -0.0034923800   -0.0039536500    0.0005385900
  -0.0001911500   -0.0037992400    0.0031670900
  -0.0002520000   -0.0004314200    0.0002572000
   0.0006131000   -0.0020462400   -0.0018770000
  -0.0002347300   -0.0004904300    0.0001091300
  -0.0030905400    0.0005100600    0.0032072800
  -0.0022225200    0.0004335100   -0.0020148200
   0.0002365100    0.0004156900    0.0000779200
   0.0000430300    0.0002985300   -0.0000635700
  -0.0004559000    0.0002390800   -0.0002186900
  -0.0013302500   -0.0002062600   -0.0001024000
  -0.0008898100   -0.0006098700    0.0001636300
  -0.0005650500   -0.0000543700    0.0000663300
   0.0004938600    0.0000767000   -0.0001821300
   0.0003074500   -0.0001056700   -0.0001359400
   0.0005957000   -0.0003991700   -0.0002626100
   0.0007781600   -0.0002124900   -0.0002055600
  -0.0027484800   -0.0012217300   -0.0025491900
  -0.0016705600    0.0002139400    0.0012444700
  -0.0001251600   -0.0005618300    0.0001150200
   0.0001257700   -0.0008449300    0.0001244100
   0.0000537000   -0.0018268700   -0.0025285500
  -0.0003150700    0.0006585700    0.0000091000
  -0.0005278300   -0.0020400000    0.0025132800
   0.0001094200    0.0005437100   -0.0000077900
  -0.0000415700    0.0000352400   -0.0002025300
   0.0000401600   -0.0002832200    0.0000637900
  -0.0002006200    0.0002029700    0.0000601600
   0.0000302900    0.0000299600    0.0000135800
   0.0021037100   -0.0005763300    0.0007970400
   0.0001657000   -0.0003124700    0.0001547000
  -0.0002205100    0.0002800800   -0.0001575300
  -0.0000172100    0.0000765500    0.0000036600
  -0.0163445200   -0.0169237400    0.0161486500
   0.0001016100    0.0000682600   -0.0003094100
   0.0000506700    0.0000993100   -0.0002232900
   0.0002674300    0.0001351800    0.0002568200
   0.0000350000   -0.0000570300    0.0000911900
  -0.0001264700    0.0002683900    0.0002072900
   0.0001368400    0.0000175400    0.0000292300
  -0.0000690800    0.0000623200    0.0000621400
  -0.0320568200   -0.0310211400   -0.0299174100
   0.0002240400    0.0002612600    0.0000352300
   0.0002756200    0.0003347800    0.0000327200
   0.0005366200    0.0005279200   -0.0007865100
  -0.0004917200   -0.0004408200    0.0006423800
   0.0006071700    0.0006862500    0.0007974900
   0.0003958200    0.0000199800   -0.0000066400
   0.0001959100    0.0001929700   -0.0000528500
  -0.0002868300   -0.0000028200    0.0007311200
   0.0006537700    0.0003190900   -0.0002383900
  -0.0001069500    0.0005375600   -0.0002869600
   0.0000880300    0.0001666300   -0.0000096200
  -0.0028336600    0.0001550400    0.0008244900
   0.0003164400   -0.0005907400   -0.0008051300
  -0.0011508100    0.0007890600   -0.0001027500
   0.0003607300    0.0000592700    0.0000592000

1    
  0.0000000000000000   0.0000000000000000   0.0100000000000000
   0.0006235500   -0.0127067800   -0.0923583900
   0.0005753100   -0.0003154500   -0.0007394600
   0.0005829400    0.0004399900   -0.0000322500
   0.0005800900    0.0000675600   -0.0007031700
  -0.0006504500   -0.0002102600   -0.0005171300
  -0.0004829600    0.0008282700   -0.0017225800
  -0.0005432700   -0.0002050700   -0.0005198400
  -0.0006742000    0.0008389100   -0.0017057900
   0.0004593000   -0.0046499300    0.0035788400
   0.0001313000   -0.0005575600   -0.0003768400
  -0.0005297000    0.0017052600    0.0036625000
   0.0000361500   -0.0004502300   -0.0001655800
  -0.0040123200    0.0010333100    0.0035804000
   0.0030961400    0.0010566100    0.0036618300
  -0.0001758800    0.0007697800   -0.0003751400
  -0.0000809700    0.0006462200   -0.0001703000
  -0.0005818100   -0.0003134300   -0.0000235300
  -0.0005884100   -0.0001452200    0.0008530300
  -0.0005838600    0.0002370600    0.0006428600
  -0.0005846400    0.0000916200   -0.0001720200
   0.0006307600    0.0002369000    0.0001950300
   0.0006389400    0.0003177200    0.0001971100
   0.0005314000    0.0002369600    0.0001927400
   0.0005321400    0.0003163400    0.0001921800
   0.0040496200   -0.0001119300    0.0036015000
  -0.0031404200   -0.0001144600    0.0037043600
   0.0001774700   -0.0003917200   -0.0003807600
   0.0000863800   -0.0005166900   -0.0001740700
   0.0005432200    0.0029031000    0.0037039400
  -0.0000474100    0.0007152800   -0.0001800700
  -0.0004759300   -0.0035106200    0.0036070600
  -0.0001401900    0.0006073800   -0.0003825100
  -0.0000967100   -0.0002235000   -0.0002726600
  -0.0000781600    0.0002000900    0.0000804500
   0.0000961200   -0.0003226200    0.0000527000
  -0.0000201400   -0.0000058500   -0.0000544600
   0.0131754100   -0.0131249400    0.0133450700
   0.0000386200    0.0001273000    0.0003547900
   0.0000633300   -0.0002781500    0.0000699100
   0.0000017800   -0.0000659900    0.0004014000
  -0.0126591300   -0.0126168500    0.0130610700
  -0.0000356200    0.0001274500    0.0003533800
  -0.0000706900   -0.0002810100    0.0000635900
   0.0000002100   -0.0000643400    0.0004001200
   0.0000913900   -0.0002212200   -0.0002787900
   0.0000800600    0.0002040100    0.0000795700
  -0.0000959900   -0.0003209000    0.0000551200
   0.0000205500   -0.0000048400   -0.0000543000
   0.0194919000    0.0194725300    0.0203286800
   0.0002110600    0.0002850700    0.0002375100
  -0.0006199500   -0.0006583200    0.0009515200
  -0.0001285900   -0.0004427300    0.0008711800
   0.0001296300    0.0008221400   -0.0005480600
  -0.0006866800   -0.0008430500   -0.0007514600
   0.0005710400    0.0003485100   -0.0004055600
  -0.0000001300   -0.0002210900    0.0000280700
  -0.0001399400    0.0008365000   -0.0005422400
   0.0006993400   -0.0008536400   -0.0007585300
  -0.0005701000    0.0003435700   -0.0003984000
   0.0000030100   -0.0002208300    0.0000298900
  -0.0200098800    0.0199918100    0.0205440700
  -0.0001884000    0.0002759300    0.0002490500
   0.0006091800   -0.0006641700    0.0009478500
   0.0001351900   -0.0004497800    0.0008854800

33   
  0.0071064845796319   0.0000000000000000   0.0070354727573528
   0.0007447400    0.0000932200   -0.0002531000
   0.0007110100   -0.0002268600    0.0000092000
   0.0006113500    0.0001304500    0.0001242800
   0.0006399500   -0.0000851500   -0.0000405200
  -0.0005833800   -0.0000110100   -0.0000129200
  -0.0005290000    0.0002193000   -0.0000212700
  -0.0006016900    0.0000517200    0.0001276800
  -0.0007209900   -0.0000226600   -0.0001220900
   0.0001526900   -0.0007892900   -0.0000748200
   0.0000016900   -0.0005798200   -0.0000232600
  -0.0000383800   -0.0003941000   -0.0000120800
  -0.0000551200   -0.0005072700    0.0002730000
  -0.0001390300    0.0006931300   -0.0001760100
   0.0000739000    0.0004815400   -0.0003443000
  -0.0000746600    0.0005483600   -0.0000311200
  -0.0001171000    0.0002406700    0.0002080500
   0.0151653900    0.0188282100    0.0189374100
  -0.0009414100   -0.0000508400    0.0002930500
  -0.0005186300   -0.0003221100    0.0001000100
  -0.0005733600   -0.0000097000    0.0002912100
   0.0003471600   -0.0002659900    0.0002953200
   0.0007143000    0.0000567600    0.0000108400
   0.0006978800    0.0001021100    0.0002290300
   0.0001261000    0.0008222000    0.0000767000
  -0.0003671300   -0.0006494400    0.0002580300
   0.0173656800   -0.0163415700    0.0180106000
   0.0000324900   -0.0006787200    0.0003420400
   0.0000587700   -0.0001645800    0.0001674800
   0.0002030500    0.0005466900    0.0003539100
  -0.0002271200    0.0007463000    0.0002432900
   0.0002841900    0.0000993300    0.0001973400
   0.0000022300    0.0004631500   -0.0001395400
  -0.0368565000   -0.0011691700   -0.0381729200
   0.0000734700   -0.0000408400   -0.0001163000
  -0.0000021200    0.0000397700   -0.0001190500
  -0.0000696200   -0.0000028100   -0.0002894400
   0.0000504600   -0.0000407600    0.0000453400
   0.0010743800    0.0005321500    0.0010832100
  -0.0000632900   -0.0000134000   -0.0001182500
  -0.0001179400   -0.0000036800   -0.0001722400
   0.0000007900   -0.0001250300    0.0000556900
   0.0000111700    0.0000989200    0.0000824600
   0.0001902600   -0.0000292900   -0.0000990700
   0.0001307600    0.0000569500   -0.0000736700
  -0.0009073600    0.0007560400    0.0008513200
   0.0000976100   -0.0000321100   -0.0001400600
  -0.0003362100   -0.0002681700    0.0002718300
   0.0001092500    0.0000191700   -0.0001514300
  -0.0000163300   -0.0001567700    0.0002349100
  -0.0000933200   -0.0000367700   -0.0001794000
  -0.0000782300    0.0000586700   -0.0001792100
   0.0000653400    0.0000155800    0.0000845900
   0.0016297300   -0.0018380900    0.0017169000
   0.0004022900   -0.0002794400   -0.0000233500
   0.0000000100    0.0001705700   -0.0001004500
   0.0000763900    0.0001632700    0.0002374000
   0.0017597100    0.0015508700   -0.0023157600
   0.0017932000   -0.0014429700   -0.0022899100
   0.0002966500   -0.0000845600   -0.0006497700
   0.0004049000    0.0000642000   -0.0006115900
  -0.0020407600   -0.0012219400    0.0013386600
   0.0002268100    0.0001542300   -0.0000260700
  -0.0004702300    0.0000082300    0.0003655900
   0.0002131800    0.0000731400    0.0001626100

33   
 -0.0071064845796319   0.0000000000000000  -0.0070354727573528
   0.0004251800   -0.0000972000    0.0002467900
   0.0004575400    0.0002182000   -0.0000137200
   0.0005539000   -0.0001202700   -0.0001124100
   0.0005295500    0.0000886500    0.0000403100
  -0.0005920200    0.0000126200    0.0000111600
  -0.0006450300   -0.0002109200    0.0000177800
  -0.0005675500   -0.0000527400   -0.0001214700
  -0.0004474000    0.0000096400    0.0001091300
  -0.0001579000   -0.0003825300    0.0000778800
  -0.0000003200   -0.0005930800    0.0000248500
   0.0000337600   -0.0007806300    0.0000391700
   0.0000570600   -0.0006651100   -0.0002825600
   0.0001534800    0.0004762900    0.0001854800
  -0.0000790900    0.0006861000    0.0003380500
   0.0000775700    0.0006277900    0.0000328000
   0.0001188000    0.0009345300   -0.0002147500
  -0.0153997300   -0.0177253500   -0.0180318400
  -0.0002298300    0.0000343300   -0.0002815100
  -0.0006505100    0.0003285300   -0.0001123100
  -0.0005964800    0.0000155900   -0.0002956500
   0.0008288000    0.0002731200   -0.0002901400
   0.0004659800   -0.0000487100   -0.0000100800
   0.0004935700   -0.0001190900   -0.0002400000
   0.0011453000   -0.0007478800   -0.0001673600
   0.0003709500   -0.0005297200   -0.0002573200
  -0.0182675900    0.0163153300   -0.0188945400
  -0.0000335300   -0.0004841200   -0.0003378100
  -0.0000508700   -0.0010013600   -0.0001716400
  -0.0002128300    0.0006249200   -0.0003506300
   0.0002194300    0.0004342800   -0.0002516200
  -0.0003695300    0.0011612500   -0.0001123300
  -0.0000183700    0.0007025500    0.0001404400
   0.0368756100   -0.0011687200    0.0381821900
  -0.0000748900    0.0000393300    0.0001174400
   0.0000030400   -0.0000411800    0.0001163900
   0.0000676500   -0.0000019100    0.0002891800
  -0.0000488500    0.0000420900   -0.0000482900
  -0.0010719200   -0.0005294400   -0.0010786600
   0.0000658000    0.0000114000    0.0001172400
   0.0001164300   -0.0000008700    0.0001715700
  -0.0000016200    0.0001230300   -0.0000571300
  -0.0000109100   -0.0000980300   -0.0000804800
  -0.0001909100    0.0000307000    0.0000996800
  -0.0001299800   -0.0000544500    0.0000732500
   0.0009159600   -0.0007561000   -0.0008546200
  -0.0001004800    0.0000343200    0.0001397900
   0.0003420600    0.0002661200   -0.0002777100
  -0.0001112500   -0.0000198500    0.0001493600
   0.0000244000    0.0001552800   -0.0002352000
   0.0000885400    0.0000488600    0.0001785500
   0.0000782000   -0.0000692500    0.0001790800
  -0.0000640100   -0.0000183900   -0.0000847800
  -0.0016612300    0.0018759300   -0.0017497000
  -0.0004209500    0.0002980300    0.0000366400
   0.0000063100   -0.0001801200    0.0001016300
  -0.0000751100   -0.0001669900   -0.0002343500
  -0.0017752900   -0.0015716000    0.0023484200
  -0.0017755000    0.0014247800    0.0022546600
  -0.0002925500    0.0000676100    0.0006746600
  -0.0004131700   -0.0000791100    0.0005931200
   0.0020151600    0.0012074700   -0.0013238300
  -0.0002238200   -0.0001499200    0.0000278500
   0.0004485200   -0.0000301900   -0.0003781000
  -0.0002175500   -0.0000738600   -0.0001620200

49   
  0.0071064845796319   0.0000000000000000   0.0070354727573528
   0.0334819200    0.0291975700    0.0289432200
  -0.0000894200    0.0004280500    0.0003163300
   0.0009505900   -0.0006853000    0.0002290000
   0.0005543700    0.0002719200    0.0005281800
  -0.0014494200   -0.0004492200    0.0007196400
  -0.0000827300   -0.0007584700    0.0011031300
  -0.0004156700   -0.0003398400    0.0000288400
   0.0018286600    0.0003787000    0.0002924900
  -0.0002188800   -0.0005865100   -0.0000193200
  -0.0006508800    0.0000764300    0.0009353000
   0.0010720500   -0.0009163200    0.0004228200
  -0.0005955200   -0.0008734800    0.0011400800
  -0.0005267000    0.0004109200    0.0002071400
   0.0287609900   -0.0291892700    0.0278771100
   0.0000703000    0.0003899900    0.0003012100
   0.0005567300    0.0014263100    0.0003774500
  -0.0001566300    0.0005888800   -0.0002848800
  -0.0017241000    0.0002376800   -0.0010127800
  -0.0008594600    0.0001024600    0.0001235800
  -0.0006974400    0.0000220900    0.0000268300
   0.0004244400    0.0000833000    0.0000233000
   0.0005911100    0.0004017000   -0.0006837600
   0.0004718600   -0.0003056900   -0.0000434900
   0.0009251200   -0.0007810200   -0.0004834700
  -0.0004196300   -0.0001838800   -0.0005362300
   0.0009071200   -0.0004079500   -0.0009740500
  -0.0002052900   -0.0006181400    0.0001792200
  -0.0002218300   -0.0002522300    0.0000796300
  -0.0007716100   -0.0001168600   -0.0011312400
  -0.0001509700    0.0005888600   -0.0001334000
  -0.0004646500    0.0008423400    0.0002215300
  -0.0001296400    0.0006992500   -0.0000268200
  -0.0000331100    0.0001547000    0.0002267900
  -0.0000956900   -0.0000640400   -0.0001871000
  -0.0000823200    0.0000431200   -0.0001868000
   0.0000597300   -0.0000171900    0.0000760600
   0.0018923500   -0.0010676600    0.0014646300
   0.0001579600   -0.0001327900    0.0002157300
  -0.0001375200    0.0002072000    0.0000204600
   0.0001957200    0.0000189800    0.0000999200
   0.0019435000    0.0015546200   -0.0021539000
   0.0018253200   -0.0016682800   -0.0022332500
   0.0002260400    0.0000454200   -0.0007237400
   0.0002359600   -0.0000340800   -0.0007885600
  -0.0017331000   -0.0019417500    0.0016297100
   0.0003063100    0.0003387800    0.0000542600
  -0.0007749200   -0.0001909300    0.0000633400
   0.0001199600    0.0000047300    0.0000646300
  -0.0695707100   -0.0016462900   -0.0654429500
   0.0011018200    0.0000327300   -0.0001403800
   0.0001312900   -0.0000210000   -0.0001364700
   0.0010287900    0.0000009200   -0.0014872600
   0.0000628500    0.0001455500   -0.0000827200
   0.0043479200    0.0028190400    0.0042165700
   0.0003396300   -0.0002378000    0.0002144600
  -0.0000925700   -0.0003907600   -0.0002173700
  -0.0001329300   -0.0006877700    0.0011550500
   0.0002659700    0.0008752800    0.0009631300
   0.0009076000   -0.0001158000    0.0003304000
   0.0008614100   -0.0000553200    0.0001397600
  -0.0040540100    0.0036159900    0.0033873100
   0.0007703000   -0.0005276000   -0.0000770300
  -0.0014566200   -0.0006339000    0.0007044800
   0.0006182700   -0.0001063300    0.0000842600

49   
 -0.0071064845796319   0.0000000000000000  -0.0070354727573528
  -0.0312449700   -0.0277257400   -0.0278994700
   0.0012655200   -0.0004304700   -0.0003167300
   0.0002127800    0.0006717900   -0.0002398400
   0.0006113100   -0.0002752100   -0.0005256600
   0.0002767900    0.0004548300   -0.0007084100
  -0.0010804000    0.0007323300   -0.0011121700
  -0.0007422700    0.0003387800   -0.0000372500
  -0.0028262400   -0.0001988500   -0.0004023400
   0.0002143000   -0.0006161500    0.0000327400
   0.0006543500   -0.0012425500   -0.0009420900
  -0.0011934000   -0.0000338400   -0.0002978300
   0.0005846300   -0.0002905200   -0.0011446100
   0.0005255800    0.0007605700   -0.0001967500
  -0.0298440300    0.0317910800   -0.0289360700
  -0.0000706400    0.0007699800   -0.0003074700
  -0.0005496100   -0.0002681100   -0.0003701500
  -0.0010190300   -0.0005837600    0.0002823700
   0.0005487800   -0.0002601700    0.0010291500
  -0.0003056300   -0.0001085400   -0.0001267100
  -0.0004701000   -0.0000257900   -0.0000160800
   0.0007458900   -0.0000870700   -0.0000256400
   0.0005742200   -0.0003985100    0.0006851700
   0.0007026400    0.0002927500    0.0000282100
   0.0002356000    0.0007855700    0.0004717500
   0.0004230000   -0.0010088900    0.0005154000
  -0.0009071500   -0.0007591300    0.0009647700
   0.0002060700   -0.0005507700   -0.0001837800
   0.0002210300   -0.0009216900   -0.0000740300
   0.0007747900    0.0012837000    0.0011286200
   0.0001477900    0.0005804500    0.0001303700
   0.0004673000    0.0003317400   -0.0002003300
   0.0001220600    0.0004616300    0.0000400600
   0.0000286600   -0.0001571500   -0.0002253300
   0.0000970300    0.0000638400    0.0001873100
   0.0000833800   -0.0000427400    0.0001871300
  -0.0000594500    0.0000168500   -0.0000769400
  -0.0018980500    0.0010782400   -0.0014680600
  -0.0001414700    0.0001118600   -0.0002249700
   0.0001356400   -0.0002060700   -0.0000183000
  -0.0001977300   -0.0000192700   -0.0000992400
  -0.0019346900   -0.0015496400    0.0021675800
  -0.0018369500    0.0016763300    0.0022207800
  -0.0002469500   -0.0000323800    0.0007205700
  -0.0002171700    0.0000493400    0.0007906800
   0.0017150300    0.0019498700   -0.0016412300
  -0.0003096200   -0.0003351700   -0.0000552100
   0.0007755600    0.0002100200   -0.0000387200
  -0.0001222900   -0.0000023500   -0.0000643800
   0.0695700800   -0.0016453400    0.0654439100
  -0.0010956200   -0.0000330200    0.0001367600
  -0.0001358200    0.0000440000    0.0001413700
  -0.0010283700    0.0000014500    0.0014851800
  -0.0000925500   -0.0001984900    0.0001125700
  -0.0043341700   -0.0027882000   -0.0042020400
  -0.0003307200    0.0002485800   -0.0002205800
   0.0000901900    0.0003999800    0.0002112500
   0.0001142100    0.0007084400   -0.0011392300
  -0.0002546300   -0.0008708900   -0.0009768200
  -0.0008929700    0.0001172900   -0.0003163100
  -0.0008732600    0.0000602400   -0.0001522700
   0.0040822800   -0.0036220100   -0.0033836300
  -0.0007595300    0.0005379400    0.0000748600
   0.0014148300    0.0006542100   -0.0007483100
  -0.0006058600    0.0001048000   -0.0000735700
