phonopy:
  version: 2.17.2
  frequency_unit_conversion_factor: 15.633302
  symmetry_tolerance: 1.00000e-05
  configuration:
    atom_name: "S Cu Fe"
    dim: "1 1 1"
    primitive_axis: "AUTO"
    eigenvectors: ".TRUE."
    band_connection: ".TRUE."
    fc_symmetry: "1"
    band: "0.0 0.0 0.0  0.0 0.0 0.5  0.25 0.25 0.25  0.0 0.5 0.0  0.0 0.0 0.0  0.5 0.5 -0.5  0.3138437966 0.6861562034 -0.3138437966  -0.3138437966 0.3138437966 0.3138437966  0.0 0.0 0.0"
    band_labels: "$\\Gamma$ X P N $\\Gamma$ M S S_0 $\\Gamma$"
    band_points: "101"

physical_unit:
  atomic_mass: "AMU"
  length: "angstrom"
  force_constants: "eV/angstrom^2"

space_group:
  type: "I-42d"
  number: 122
  Hall_symbol: "I -4 2bw"

primitive_matrix:
- [  0.250000000000000, -0.250000000000000,  0.250000000000000 ]
- [  0.250000000000000, -0.250000000000000, -0.250000000000000 ]
- [  0.500000000000000,  0.500000000000000, -0.500000000000000 ]

supercell_matrix:
- [   1,   0,   0 ]
- [   0,   1,   0 ]
- [   0,   0,   1 ]

primitive_cell:
  lattice:
  - [     2.628983723912846,     2.628983723912846,     5.205427004548754 ] # a
  - [    -2.628983723912846,    -2.628983723912846,     5.205427004548754 ] # b
  - [     2.628983723912846,    -2.628983723912846,    -5.205427004548754 ] # c
  points:
  - symbol: S  # 1
    coordinates: [  0.377314468099456,  0.875000000000000,  0.002314468099456 ]
    mass: 32.065000
  - symbol: S  # 2
    coordinates: [  0.872685561900525,  0.375000000000000,  0.997685561900525 ]
    mass: 32.065000
  - symbol: S  # 3
    coordinates: [  0.125000000000000,  0.127314438099475,  0.502314438099475 ]
    mass: 32.065000
  - symbol: S  # 4
    coordinates: [  0.625000000000000,  0.622685531900544,  0.497685531900544 ]
    mass: 32.065000
  - symbol: Cu # 5
    coordinates: [  0.500000000000000,  0.500000000000000,  0.000000000000000 ]
    mass: 63.546000
  - symbol: Cu # 6
    coordinates: [  0.750000000000000,  0.250000000000000,  0.500000000000000 ]
    mass: 63.546000
  - symbol: Fe # 7
    coordinates: [  0.000000000000000,  0.000000000000000,  0.000000000000000 ]
    mass: 55.845000
  - symbol: Fe # 8
    coordinates: [  0.250000000000000,  0.750000000000000,  0.500000000000000 ]
    mass: 55.845000
  reciprocal_lattice: # without 2pi
  - [     0.190187560102436,    -0.000000000000000,     0.096053599361412 ] # a*
  - [     0.000000000000000,    -0.190187560102436,     0.096053599361412 ] # b*
  - [     0.190187560102436,    -0.190187560102436,     0.000000000000000 ] # c*

unit_cell:
  lattice:
  - [    10.515934895651382,     0.000000000000000,     0.000000000000000 ] # a
  - [     0.000000000000000,    10.515934895651382,     0.000000000000000 ] # b
  - [     0.000000000000000,     0.000000000000000,    10.410854009097507 ] # c
  points:
  - symbol: S  # 1
    coordinates: [  0.126157234049728,  0.125000000000000,  0.125000000000000 ]
    mass: 32.065000
    reduced_to: 1
  - symbol: S  # 2
    coordinates: [  0.626157234049721,  0.125000000000000,  0.125000000000000 ]
    mass: 32.065000
    reduced_to: 1
  - symbol: S  # 3
    coordinates: [  0.126157234049728,  0.625000000000000,  0.125000000000000 ]
    mass: 32.065000
    reduced_to: 1
  - symbol: S  # 4
    coordinates: [  0.626157234049721,  0.625000000000000,  0.125000000000000 ]
    mass: 32.065000
    reduced_to: 1
  - symbol: S  # 5
    coordinates: [  0.373842780950263,  0.375000000000000,  0.125000000000000 ]
    mass: 32.065000
    reduced_to: 5
  - symbol: S  # 6
    coordinates: [  0.873842780950277,  0.375000000000000,  0.125000000000000 ]
    mass: 32.065000
    reduced_to: 5
  - symbol: S  # 7
    coordinates: [  0.373842780950263,  0.875000000000000,  0.125000000000000 ]
    mass: 32.065000
    reduced_to: 5
  - symbol: S  # 8
    coordinates: [  0.873842780950277,  0.875000000000000,  0.125000000000000 ]
    mass: 32.065000
    reduced_to: 5
  - symbol: S  # 9
    coordinates: [  0.125000000000000,  0.373842780950263,  0.875000000000000 ]
    mass: 32.065000
    reduced_to: 9
  - symbol: S  # 10
    coordinates: [  0.625000000000000,  0.373842780950263,  0.875000000000000 ]
    mass: 32.065000
    reduced_to: 9
  - symbol: S  # 11
    coordinates: [  0.125000000000000,  0.873842780950277,  0.875000000000000 ]
    mass: 32.065000
    reduced_to: 9
  - symbol: S  # 12
    coordinates: [  0.625000000000000,  0.873842780950277,  0.875000000000000 ]
    mass: 32.065000
    reduced_to: 9
  - symbol: S  # 13
    coordinates: [  0.375000000000000,  0.126157234049728,  0.875000000000000 ]
    mass: 32.065000
    reduced_to: 13
  - symbol: S  # 14
    coordinates: [  0.875000000000000,  0.126157234049728,  0.875000000000000 ]
    mass: 32.065000
    reduced_to: 13
  - symbol: S  # 15
    coordinates: [  0.375000000000000,  0.626157234049721,  0.875000000000000 ]
    mass: 32.065000
    reduced_to: 13
  - symbol: S  # 16
    coordinates: [  0.875000000000000,  0.626157234049721,  0.875000000000000 ]
    mass: 32.065000
    reduced_to: 13
  - symbol: S  # 17
    coordinates: [  0.123842765950272,  0.125000000000000,  0.625000000000000 ]
    mass: 32.065000
    reduced_to: 5
  - symbol: S  # 18
    coordinates: [  0.623842765950272,  0.125000000000000,  0.625000000000000 ]
    mass: 32.065000
    reduced_to: 5
  - symbol: S  # 19
    coordinates: [  0.123842765950272,  0.625000000000000,  0.625000000000000 ]
    mass: 32.065000
    reduced_to: 5
  - symbol: S  # 20
    coordinates: [  0.623842765950272,  0.625000000000000,  0.625000000000000 ]
    mass: 32.065000
    reduced_to: 5
  - symbol: S  # 21
    coordinates: [  0.376157219049737,  0.375000000000000,  0.625000000000000 ]
    mass: 32.065000
    reduced_to: 1
  - symbol: S  # 22
    coordinates: [  0.876157219049723,  0.375000000000000,  0.625000000000000 ]
    mass: 32.065000
    reduced_to: 1
  - symbol: S  # 23
    coordinates: [  0.376157219049737,  0.875000000000000,  0.625000000000000 ]
    mass: 32.065000
    reduced_to: 1
  - symbol: S  # 24
    coordinates: [  0.876157219049723,  0.875000000000000,  0.625000000000000 ]
    mass: 32.065000
    reduced_to: 1
  - symbol: S  # 25
    coordinates: [  0.375000000000000,  0.123842765950272,  0.375000000000000 ]
    mass: 32.065000
    reduced_to: 9
  - symbol: S  # 26
    coordinates: [  0.875000000000000,  0.123842765950272,  0.375000000000000 ]
    mass: 32.065000
    reduced_to: 9
  - symbol: S  # 27
    coordinates: [  0.375000000000000,  0.623842765950272,  0.375000000000000 ]
    mass: 32.065000
    reduced_to: 9
  - symbol: S  # 28
    coordinates: [  0.875000000000000,  0.623842765950272,  0.375000000000000 ]
    mass: 32.065000
    reduced_to: 9
  - symbol: S  # 29
    coordinates: [  0.125000000000000,  0.376157219049737,  0.375000000000000 ]
    mass: 32.065000
    reduced_to: 13
  - symbol: S  # 30
    coordinates: [  0.625000000000000,  0.376157219049737,  0.375000000000000 ]
    mass: 32.065000
    reduced_to: 13
  - symbol: S  # 31
    coordinates: [  0.125000000000000,  0.876157219049723,  0.375000000000000 ]
    mass: 32.065000
    reduced_to: 13
  - symbol: S  # 32
    coordinates: [  0.625000000000000,  0.876157219049723,  0.375000000000000 ]
    mass: 32.065000
    reduced_to: 13
  - symbol: Cu # 33
    coordinates: [  0.000000000000000,  0.000000000000000,  0.500000000000000 ]
    mass: 63.546000
    reduced_to: 33
  - symbol: Cu # 34
    coordinates: [  0.500000000000000,  0.000000000000000,  0.500000000000000 ]
    mass: 63.546000
    reduced_to: 33
  - symbol: Cu # 35
    coordinates: [  0.000000000000000,  0.500000000000000,  0.500000000000000 ]
    mass: 63.546000
    reduced_to: 33
  - symbol: Cu # 36
    coordinates: [  0.500000000000000,  0.500000000000000,  0.500000000000000 ]
    mass: 63.546000
    reduced_to: 33
  - symbol: Cu # 37
    coordinates: [  0.250000000000000,  0.000000000000000,  0.250000000000000 ]
    mass: 63.546000
    reduced_to: 37
  - symbol: Cu # 38
    coordinates: [  0.750000000000000,  0.000000000000000,  0.250000000000000 ]
    mass: 63.546000
    reduced_to: 37
  - symbol: Cu # 39
    coordinates: [  0.250000000000000,  0.500000000000000,  0.250000000000000 ]
    mass: 63.546000
    reduced_to: 37
  - symbol: Cu # 40
    coordinates: [  0.750000000000000,  0.500000000000000,  0.250000000000000 ]
    mass: 63.546000
    reduced_to: 37
  - symbol: Cu # 41
    coordinates: [  0.250000000000000,  0.250000000000000,  0.000000000000000 ]
    mass: 63.546000
    reduced_to: 33
  - symbol: Cu # 42
    coordinates: [  0.750000000000000,  0.250000000000000,  0.000000000000000 ]
    mass: 63.546000
    reduced_to: 33
  - symbol: Cu # 43
    coordinates: [  0.250000000000000,  0.750000000000000,  0.000000000000000 ]
    mass: 63.546000
    reduced_to: 33
  - symbol: Cu # 44
    coordinates: [  0.750000000000000,  0.750000000000000,  0.000000000000000 ]
    mass: 63.546000
    reduced_to: 33
  - symbol: Cu # 45
    coordinates: [  0.000000000000000,  0.250000000000000,  0.750000000000000 ]
    mass: 63.546000
    reduced_to: 37
  - symbol: Cu # 46
    coordinates: [  0.500000000000000,  0.250000000000000,  0.750000000000000 ]
    mass: 63.546000
    reduced_to: 37
  - symbol: Cu # 47
    coordinates: [  0.000000000000000,  0.750000000000000,  0.750000000000000 ]
    mass: 63.546000
    reduced_to: 37
  - symbol: Cu # 48
    coordinates: [  0.500000000000000,  0.750000000000000,  0.750000000000000 ]
    mass: 63.546000
    reduced_to: 37
  - symbol: Fe # 49
    coordinates: [  0.000000000000000,  0.000000000000000,  0.000000000000000 ]
    mass: 55.845000
    reduced_to: 49
  - symbol: Fe # 50
    coordinates: [  0.500000000000000,  0.000000000000000,  0.000000000000000 ]
    mass: 55.845000
    reduced_to: 49
  - symbol: Fe # 51
    coordinates: [  0.000000000000000,  0.500000000000000,  0.000000000000000 ]
    mass: 55.845000
    reduced_to: 49
  - symbol: Fe # 52
    coordinates: [  0.500000000000000,  0.500000000000000,  0.000000000000000 ]
    mass: 55.845000
    reduced_to: 49
  - symbol: Fe # 53
    coordinates: [  0.250000000000000,  0.000000000000000,  0.750000000000000 ]
    mass: 55.845000
    reduced_to: 53
  - symbol: Fe # 54
    coordinates: [  0.750000000000000,  0.000000000000000,  0.750000000000000 ]
    mass: 55.845000
    reduced_to: 53
  - symbol: Fe # 55
    coordinates: [  0.250000000000000,  0.500000000000000,  0.750000000000000 ]
    mass: 55.845000
    reduced_to: 53
  - symbol: Fe # 56
    coordinates: [  0.750000000000000,  0.500000000000000,  0.750000000000000 ]
    mass: 55.845000
    reduced_to: 53
  - symbol: Fe # 57
    coordinates: [  0.250000000000000,  0.250000000000000,  0.500000000000000 ]
    mass: 55.845000
    reduced_to: 49
  - symbol: Fe # 58
    coordinates: [  0.750000000000000,  0.250000000000000,  0.500000000000000 ]
    mass: 55.845000
    reduced_to: 49
  - symbol: Fe # 59
    coordinates: [  0.250000000000000,  0.750000000000000,  0.500000000000000 ]
    mass: 55.845000
    reduced_to: 49
  - symbol: Fe # 60
    coordinates: [  0.750000000000000,  0.750000000000000,  0.500000000000000 ]
    mass: 55.845000
    reduced_to: 49
  - symbol: Fe # 61
    coordinates: [  0.000000000000000,  0.250000000000000,  0.250000000000000 ]
    mass: 55.845000
    reduced_to: 53
  - symbol: Fe # 62
    coordinates: [  0.500000000000000,  0.250000000000000,  0.250000000000000 ]
    mass: 55.845000
    reduced_to: 53
  - symbol: Fe # 63
    coordinates: [  0.000000000000000,  0.750000000000000,  0.250000000000000 ]
    mass: 55.845000
    reduced_to: 53
  - symbol: Fe # 64
    coordinates: [  0.500000000000000,  0.750000000000000,  0.250000000000000 ]
    mass: 55.845000
    reduced_to: 53

supercell:
  lattice:
  - [    10.515934895651382,     0.000000000000000,     0.000000000000000 ] # a
  - [     0.000000000000000,    10.515934895651382,     0.000000000000000 ] # b
  - [     0.000000000000000,     0.000000000000000,    10.410854009097507 ] # c
  points:
  - symbol: S  # 1
    coordinates: [  0.126157234049728,  0.125000000000000,  0.125000000000000 ]
    mass: 32.065000
    reduced_to: 1
  - symbol: S  # 2
    coordinates: [  0.626157234049721,  0.125000000000000,  0.125000000000000 ]
    mass: 32.065000
    reduced_to: 1
  - symbol: S  # 3
    coordinates: [  0.126157234049728,  0.625000000000000,  0.125000000000000 ]
    mass: 32.065000
    reduced_to: 1
  - symbol: S  # 4
    coordinates: [  0.626157234049721,  0.625000000000000,  0.125000000000000 ]
    mass: 32.065000
    reduced_to: 1
  - symbol: S  # 5
    coordinates: [  0.373842780950263,  0.375000000000000,  0.125000000000000 ]
    mass: 32.065000
    reduced_to: 5
  - symbol: S  # 6
    coordinates: [  0.873842780950277,  0.375000000000000,  0.125000000000000 ]
    mass: 32.065000
    reduced_to: 5
  - symbol: S  # 7
    coordinates: [  0.373842780950263,  0.875000000000000,  0.125000000000000 ]
    mass: 32.065000
    reduced_to: 5
  - symbol: S  # 8
    coordinates: [  0.873842780950277,  0.875000000000000,  0.125000000000000 ]
    mass: 32.065000
    reduced_to: 5
  - symbol: S  # 9
    coordinates: [  0.125000000000000,  0.373842780950263,  0.875000000000000 ]
    mass: 32.065000
    reduced_to: 9
  - symbol: S  # 10
    coordinates: [  0.625000000000000,  0.373842780950263,  0.875000000000000 ]
    mass: 32.065000
    reduced_to: 9
  - symbol: S  # 11
    coordinates: [  0.125000000000000,  0.873842780950277,  0.875000000000000 ]
    mass: 32.065000
    reduced_to: 9
  - symbol: S  # 12
    coordinates: [  0.625000000000000,  0.873842780950277,  0.875000000000000 ]
    mass: 32.065000
    reduced_to: 9
  - symbol: S  # 13
    coordinates: [  0.375000000000000,  0.126157234049728,  0.875000000000000 ]
    mass: 32.065000
    reduced_to: 13
  - symbol: S  # 14
    coordinates: [  0.875000000000000,  0.126157234049728,  0.875000000000000 ]
    mass: 32.065000
    reduced_to: 13
  - symbol: S  # 15
    coordinates: [  0.375000000000000,  0.626157234049721,  0.875000000000000 ]
    mass: 32.065000
    reduced_to: 13
  - symbol: S  # 16
    coordinates: [  0.875000000000000,  0.626157234049721,  0.875000000000000 ]
    mass: 32.065000
    reduced_to: 13
  - symbol: S  # 17
    coordinates: [  0.123842765950272,  0.125000000000000,  0.625000000000000 ]
    mass: 32.065000
    reduced_to: 5
  - symbol: S  # 18
    coordinates: [  0.623842765950272,  0.125000000000000,  0.625000000000000 ]
    mass: 32.065000
    reduced_to: 5
  - symbol: S  # 19
    coordinates: [  0.123842765950272,  0.625000000000000,  0.625000000000000 ]
    mass: 32.065000
    reduced_to: 5
  - symbol: S  # 20
    coordinates: [  0.623842765950272,  0.625000000000000,  0.625000000000000 ]
    mass: 32.065000
    reduced_to: 5
  - symbol: S  # 21
    coordinates: [  0.376157219049737,  0.375000000000000,  0.625000000000000 ]
    mass: 32.065000
    reduced_to: 1
  - symbol: S  # 22
    coordinates: [  0.876157219049723,  0.375000000000000,  0.625000000000000 ]
    mass: 32.065000
    reduced_to: 1
  - symbol: S  # 23
    coordinates: [  0.376157219049737,  0.875000000000000,  0.625000000000000 ]
    mass: 32.065000
    reduced_to: 1
  - symbol: S  # 24
    coordinates: [  0.876157219049723,  0.875000000000000,  0.625000000000000 ]
    mass: 32.065000
    reduced_to: 1
  - symbol: S  # 25
    coordinates: [  0.375000000000000,  0.123842765950272,  0.375000000000000 ]
    mass: 32.065000
    reduced_to: 9
  - symbol: S  # 26
    coordinates: [  0.875000000000000,  0.123842765950272,  0.375000000000000 ]
    mass: 32.065000
    reduced_to: 9
  - symbol: S  # 27
    coordinates: [  0.375000000000000,  0.623842765950272,  0.375000000000000 ]
    mass: 32.065000
    reduced_to: 9
  - symbol: S  # 28
    coordinates: [  0.875000000000000,  0.623842765950272,  0.375000000000000 ]
    mass: 32.065000
    reduced_to: 9
  - symbol: S  # 29
    coordinates: [  0.125000000000000,  0.376157219049737,  0.375000000000000 ]
    mass: 32.065000
    reduced_to: 13
  - symbol: S  # 30
    coordinates: [  0.625000000000000,  0.376157219049737,  0.375000000000000 ]
    mass: 32.065000
    reduced_to: 13
  - symbol: S  # 31
    coordinates: [  0.125000000000000,  0.876157219049723,  0.375000000000000 ]
    mass: 32.065000
    reduced_to: 13
  - symbol: S  # 32
    coordinates: [  0.625000000000000,  0.876157219049723,  0.375000000000000 ]
    mass: 32.065000
    reduced_to: 13
  - symbol: Cu # 33
    coordinates: [  0.000000000000000,  0.000000000000000,  0.500000000000000 ]
    mass: 63.546000
    reduced_to: 33
  - symbol: Cu # 34
    coordinates: [  0.500000000000000,  0.000000000000000,  0.500000000000000 ]
    mass: 63.546000
    reduced_to: 33
  - symbol: Cu # 35
    coordinates: [  0.000000000000000,  0.500000000000000,  0.500000000000000 ]
    mass: 63.546000
    reduced_to: 33
  - symbol: Cu # 36
    coordinates: [  0.500000000000000,  0.500000000000000,  0.500000000000000 ]
    mass: 63.546000
    reduced_to: 33
  - symbol: Cu # 37
    coordinates: [  0.250000000000000,  0.000000000000000,  0.250000000000000 ]
    mass: 63.546000
    reduced_to: 37
  - symbol: Cu # 38
    coordinates: [  0.750000000000000,  0.000000000000000,  0.250000000000000 ]
    mass: 63.546000
    reduced_to: 37
  - symbol: Cu # 39
    coordinates: [  0.250000000000000,  0.500000000000000,  0.250000000000000 ]
    mass: 63.546000
    reduced_to: 37
  - symbol: Cu # 40
    coordinates: [  0.750000000000000,  0.500000000000000,  0.250000000000000 ]
    mass: 63.546000
    reduced_to: 37
  - symbol: Cu # 41
    coordinates: [  0.250000000000000,  0.250000000000000,  0.000000000000000 ]
    mass: 63.546000
    reduced_to: 33
  - symbol: Cu # 42
    coordinates: [  0.750000000000000,  0.250000000000000,  0.000000000000000 ]
    mass: 63.546000
    reduced_to: 33
  - symbol: Cu # 43
    coordinates: [  0.250000000000000,  0.750000000000000,  0.000000000000000 ]
    mass: 63.546000
    reduced_to: 33
  - symbol: Cu # 44
    coordinates: [  0.750000000000000,  0.750000000000000,  0.000000000000000 ]
    mass: 63.546000
    reduced_to: 33
  - symbol: Cu # 45
    coordinates: [  0.000000000000000,  0.250000000000000,  0.750000000000000 ]
    mass: 63.546000
    reduced_to: 37
  - symbol: Cu # 46
    coordinates: [  0.500000000000000,  0.250000000000000,  0.750000000000000 ]
    mass: 63.546000
    reduced_to: 37
  - symbol: Cu # 47
    coordinates: [  0.000000000000000,  0.750000000000000,  0.750000000000000 ]
    mass: 63.546000
    reduced_to: 37
  - symbol: Cu # 48
    coordinates: [  0.500000000000000,  0.750000000000000,  0.750000000000000 ]
    mass: 63.546000
    reduced_to: 37
  - symbol: Fe # 49
    coordinates: [  0.000000000000000,  0.000000000000000,  0.000000000000000 ]
    mass: 55.845000
    reduced_to: 49
  - symbol: Fe # 50
    coordinates: [  0.500000000000000,  0.000000000000000,  0.000000000000000 ]
    mass: 55.845000
    reduced_to: 49
  - symbol: Fe # 51
    coordinates: [  0.000000000000000,  0.500000000000000,  0.000000000000000 ]
    mass: 55.845000
    reduced_to: 49
  - symbol: Fe # 52
    coordinates: [  0.500000000000000,  0.500000000000000,  0.000000000000000 ]
    mass: 55.845000
    reduced_to: 49
  - symbol: Fe # 53
    coordinates: [  0.250000000000000,  0.000000000000000,  0.750000000000000 ]
    mass: 55.845000
    reduced_to: 53
  - symbol: Fe # 54
    coordinates: [  0.750000000000000,  0.000000000000000,  0.750000000000000 ]
    mass: 55.845000
    reduced_to: 53
  - symbol: Fe # 55
    coordinates: [  0.250000000000000,  0.500000000000000,  0.750000000000000 ]
    mass: 55.845000
    reduced_to: 53
  - symbol: Fe # 56
    coordinates: [  0.750000000000000,  0.500000000000000,  0.750000000000000 ]
    mass: 55.845000
    reduced_to: 53
  - symbol: Fe # 57
    coordinates: [  0.250000000000000,  0.250000000000000,  0.500000000000000 ]
    mass: 55.845000
    reduced_to: 49
  - symbol: Fe # 58
    coordinates: [  0.750000000000000,  0.250000000000000,  0.500000000000000 ]
    mass: 55.845000
    reduced_to: 49
  - symbol: Fe # 59
    coordinates: [  0.250000000000000,  0.750000000000000,  0.500000000000000 ]
    mass: 55.845000
    reduced_to: 49
  - symbol: Fe # 60
    coordinates: [  0.750000000000000,  0.750000000000000,  0.500000000000000 ]
    mass: 55.845000
    reduced_to: 49
  - symbol: Fe # 61
    coordinates: [  0.000000000000000,  0.250000000000000,  0.250000000000000 ]
    mass: 55.845000
    reduced_to: 53
  - symbol: Fe # 62
    coordinates: [  0.500000000000000,  0.250000000000000,  0.250000000000000 ]
    mass: 55.845000
    reduced_to: 53
  - symbol: Fe # 63
    coordinates: [  0.000000000000000,  0.750000000000000,  0.250000000000000 ]
    mass: 55.845000
    reduced_to: 53
  - symbol: Fe # 64
    coordinates: [  0.500000000000000,  0.750000000000000,  0.250000000000000 ]
    mass: 55.845000
    reduced_to: 53
