phonopy:
  version: 2.11.0
  frequency_unit_conversion_factor: 15.633302
  symmetry_tolerance: 1.00000e-05
  configuration:
    create_displacements: ".true."
    dim: "1 1 1"

physical_unit:
  atomic_mass: "AMU"
  length: "angstrom"
  force_constants: "eV/angstrom^2"

space_group:
  type: "I-42d"
  number: 122
  Hall_symbol: "I -4 2bw"

supercell_matrix:
- [   1,   0,   0 ]
- [   0,   1,   0 ]
- [   0,   0,   1 ]

primitive_cell:
  lattice:
  - [    10.515934895651382,     0.000000000000000,     0.000000000000000 ] # a
  - [     0.000000000000000,    10.515934895651382,     0.000000000000000 ] # b
  - [     0.000000000000000,     0.000000000000000,    10.410854009097507 ] # c
  points:
  - symbol: S  # 1
    coordinates: [  0.126157234049728,  0.125000000000000,  0.125000000000000 ]
    mass: 32.065000
  - symbol: S  # 2
    coordinates: [  0.626157234049721,  0.125000000000000,  0.125000000000000 ]
    mass: 32.065000
  - symbol: S  # 3
    coordinates: [  0.126157234049728,  0.625000000000000,  0.125000000000000 ]
    mass: 32.065000
  - symbol: S  # 4
    coordinates: [  0.626157234049721,  0.625000000000000,  0.125000000000000 ]
    mass: 32.065000
  - symbol: S  # 5
    coordinates: [  0.373842780950263,  0.375000000000000,  0.125000000000000 ]
    mass: 32.065000
  - symbol: S  # 6
    coordinates: [  0.873842780950277,  0.375000000000000,  0.125000000000000 ]
    mass: 32.065000
  - symbol: S  # 7
    coordinates: [  0.373842780950263,  0.875000000000000,  0.125000000000000 ]
    mass: 32.065000
  - symbol: S  # 8
    coordinates: [  0.873842780950277,  0.875000000000000,  0.125000000000000 ]
    mass: 32.065000
  - symbol: S  # 9
    coordinates: [  0.125000000000000,  0.373842780950263,  0.875000000000000 ]
    mass: 32.065000
  - symbol: S  # 10
    coordinates: [  0.625000000000000,  0.373842780950263,  0.875000000000000 ]
    mass: 32.065000
  - symbol: S  # 11
    coordinates: [  0.125000000000000,  0.873842780950277,  0.875000000000000 ]
    mass: 32.065000
  - symbol: S  # 12
    coordinates: [  0.625000000000000,  0.873842780950277,  0.875000000000000 ]
    mass: 32.065000
  - symbol: S  # 13
    coordinates: [  0.375000000000000,  0.126157234049728,  0.875000000000000 ]
    mass: 32.065000
  - symbol: S  # 14
    coordinates: [  0.875000000000000,  0.126157234049728,  0.875000000000000 ]
    mass: 32.065000
  - symbol: S  # 15
    coordinates: [  0.375000000000000,  0.626157234049721,  0.875000000000000 ]
    mass: 32.065000
  - symbol: S  # 16
    coordinates: [  0.875000000000000,  0.626157234049721,  0.875000000000000 ]
    mass: 32.065000
  - symbol: S  # 17
    coordinates: [  0.123842765950272,  0.125000000000000,  0.625000000000000 ]
    mass: 32.065000
  - symbol: S  # 18
    coordinates: [  0.623842765950272,  0.125000000000000,  0.625000000000000 ]
    mass: 32.065000
  - symbol: S  # 19
    coordinates: [  0.123842765950272,  0.625000000000000,  0.625000000000000 ]
    mass: 32.065000
  - symbol: S  # 20
    coordinates: [  0.623842765950272,  0.625000000000000,  0.625000000000000 ]
    mass: 32.065000
  - symbol: S  # 21
    coordinates: [  0.376157219049737,  0.375000000000000,  0.625000000000000 ]
    mass: 32.065000
  - symbol: S  # 22
    coordinates: [  0.876157219049723,  0.375000000000000,  0.625000000000000 ]
    mass: 32.065000
  - symbol: S  # 23
    coordinates: [  0.376157219049737,  0.875000000000000,  0.625000000000000 ]
    mass: 32.065000
  - symbol: S  # 24
    coordinates: [  0.876157219049723,  0.875000000000000,  0.625000000000000 ]
    mass: 32.065000
  - symbol: S  # 25
    coordinates: [  0.375000000000000,  0.123842765950272,  0.375000000000000 ]
    mass: 32.065000
  - symbol: S  # 26
    coordinates: [  0.875000000000000,  0.123842765950272,  0.375000000000000 ]
    mass: 32.065000
  - symbol: S  # 27
    coordinates: [  0.375000000000000,  0.623842765950272,  0.375000000000000 ]
    mass: 32.065000
  - symbol: S  # 28
    coordinates: [  0.875000000000000,  0.623842765950272,  0.375000000000000 ]
    mass: 32.065000
  - symbol: S  # 29
    coordinates: [  0.125000000000000,  0.376157219049737,  0.375000000000000 ]
    mass: 32.065000
  - symbol: S  # 30
    coordinates: [  0.625000000000000,  0.376157219049737,  0.375000000000000 ]
    mass: 32.065000
  - symbol: S  # 31
    coordinates: [  0.125000000000000,  0.876157219049723,  0.375000000000000 ]
    mass: 32.065000
  - symbol: S  # 32
    coordinates: [  0.625000000000000,  0.876157219049723,  0.375000000000000 ]
    mass: 32.065000
  - symbol: Cu # 33
    coordinates: [  0.000000000000000,  0.000000000000000,  0.500000000000000 ]
    mass: 63.546000
  - symbol: Cu # 34
    coordinates: [  0.500000000000000,  0.000000000000000,  0.500000000000000 ]
    mass: 63.546000
  - symbol: Cu # 35
    coordinates: [  0.000000000000000,  0.500000000000000,  0.500000000000000 ]
    mass: 63.546000
  - symbol: Cu # 36
    coordinates: [  0.500000000000000,  0.500000000000000,  0.500000000000000 ]
    mass: 63.546000
  - symbol: Cu # 37
    coordinates: [  0.250000000000000,  0.000000000000000,  0.250000000000000 ]
    mass: 63.546000
  - symbol: Cu # 38
    coordinates: [  0.750000000000000,  0.000000000000000,  0.250000000000000 ]
    mass: 63.546000
  - symbol: Cu # 39
    coordinates: [  0.250000000000000,  0.500000000000000,  0.250000000000000 ]
    mass: 63.546000
  - symbol: Cu # 40
    coordinates: [  0.750000000000000,  0.500000000000000,  0.250000000000000 ]
    mass: 63.546000
  - symbol: Cu # 41
    coordinates: [  0.250000000000000,  0.250000000000000,  0.000000000000000 ]
    mass: 63.546000
  - symbol: Cu # 42
    coordinates: [  0.750000000000000,  0.250000000000000,  0.000000000000000 ]
    mass: 63.546000
  - symbol: Cu # 43
    coordinates: [  0.250000000000000,  0.750000000000000,  0.000000000000000 ]
    mass: 63.546000
  - symbol: Cu # 44
    coordinates: [  0.750000000000000,  0.750000000000000,  0.000000000000000 ]
    mass: 63.546000
  - symbol: Cu # 45
    coordinates: [  0.000000000000000,  0.250000000000000,  0.750000000000000 ]
    mass: 63.546000
  - symbol: Cu # 46
    coordinates: [  0.500000000000000,  0.250000000000000,  0.750000000000000 ]
    mass: 63.546000
  - symbol: Cu # 47
    coordinates: [  0.000000000000000,  0.750000000000000,  0.750000000000000 ]
    mass: 63.546000
  - symbol: Cu # 48
    coordinates: [  0.500000000000000,  0.750000000000000,  0.750000000000000 ]
    mass: 63.546000
  - symbol: Fe # 49
    coordinates: [  0.000000000000000,  0.000000000000000,  0.000000000000000 ]
    mass: 55.845000
  - symbol: Fe # 50
    coordinates: [  0.500000000000000,  0.000000000000000,  0.000000000000000 ]
    mass: 55.845000
  - symbol: Fe # 51
    coordinates: [  0.000000000000000,  0.500000000000000,  0.000000000000000 ]
    mass: 55.845000
  - symbol: Fe # 52
    coordinates: [  0.500000000000000,  0.500000000000000,  0.000000000000000 ]
    mass: 55.845000
  - symbol: Fe # 53
    coordinates: [  0.250000000000000,  0.000000000000000,  0.750000000000000 ]
    mass: 55.845000
  - symbol: Fe # 54
    coordinates: [  0.750000000000000,  0.000000000000000,  0.750000000000000 ]
    mass: 55.845000
  - symbol: Fe # 55
    coordinates: [  0.250000000000000,  0.500000000000000,  0.750000000000000 ]
    mass: 55.845000
  - symbol: Fe # 56
    coordinates: [  0.750000000000000,  0.500000000000000,  0.750000000000000 ]
    mass: 55.845000
  - symbol: Fe # 57
    coordinates: [  0.250000000000000,  0.250000000000000,  0.500000000000000 ]
    mass: 55.845000
  - symbol: Fe # 58
    coordinates: [  0.750000000000000,  0.250000000000000,  0.500000000000000 ]
    mass: 55.845000
  - symbol: Fe # 59
    coordinates: [  0.250000000000000,  0.750000000000000,  0.500000000000000 ]
    mass: 55.845000
  - symbol: Fe # 60
    coordinates: [  0.750000000000000,  0.750000000000000,  0.500000000000000 ]
    mass: 55.845000
  - symbol: Fe # 61
    coordinates: [  0.000000000000000,  0.250000000000000,  0.250000000000000 ]
    mass: 55.845000
  - symbol: Fe # 62
    coordinates: [  0.500000000000000,  0.250000000000000,  0.250000000000000 ]
    mass: 55.845000
  - symbol: Fe # 63
    coordinates: [  0.000000000000000,  0.750000000000000,  0.250000000000000 ]
    mass: 55.845000
  - symbol: Fe # 64
    coordinates: [  0.500000000000000,  0.750000000000000,  0.250000000000000 ]
    mass: 55.845000
  reciprocal_lattice: # without 2pi
  - [     0.095093780051218,     0.000000000000000,     0.000000000000000 ] # a*
  - [     0.000000000000000,     0.095093780051218,     0.000000000000000 ] # b*
  - [     0.000000000000000,     0.000000000000000,     0.096053599361412 ] # c*

unit_cell:
  lattice:
  - [    10.515934895651382,     0.000000000000000,     0.000000000000000 ] # a
  - [     0.000000000000000,    10.515934895651382,     0.000000000000000 ] # b
  - [     0.000000000000000,     0.000000000000000,    10.410854009097507 ] # c
  points:
  - symbol: S  # 1
    coordinates: [  0.126157234049728,  0.125000000000000,  0.125000000000000 ]
    mass: 32.065000
    reduced_to: 1
  - symbol: S  # 2
    coordinates: [  0.626157234049721,  0.125000000000000,  0.125000000000000 ]
    mass: 32.065000
    reduced_to: 2
  - symbol: S  # 3
    coordinates: [  0.126157234049728,  0.625000000000000,  0.125000000000000 ]
    mass: 32.065000
    reduced_to: 3
  - symbol: S  # 4
    coordinates: [  0.626157234049721,  0.625000000000000,  0.125000000000000 ]
    mass: 32.065000
    reduced_to: 4
  - symbol: S  # 5
    coordinates: [  0.373842780950263,  0.375000000000000,  0.125000000000000 ]
    mass: 32.065000
    reduced_to: 5
  - symbol: S  # 6
    coordinates: [  0.873842780950277,  0.375000000000000,  0.125000000000000 ]
    mass: 32.065000
    reduced_to: 6
  - symbol: S  # 7
    coordinates: [  0.373842780950263,  0.875000000000000,  0.125000000000000 ]
    mass: 32.065000
    reduced_to: 7
  - symbol: S  # 8
    coordinates: [  0.873842780950277,  0.875000000000000,  0.125000000000000 ]
    mass: 32.065000
    reduced_to: 8
  - symbol: S  # 9
    coordinates: [  0.125000000000000,  0.373842780950263,  0.875000000000000 ]
    mass: 32.065000
    reduced_to: 9
  - symbol: S  # 10
    coordinates: [  0.625000000000000,  0.373842780950263,  0.875000000000000 ]
    mass: 32.065000
    reduced_to: 10
  - symbol: S  # 11
    coordinates: [  0.125000000000000,  0.873842780950277,  0.875000000000000 ]
    mass: 32.065000
    reduced_to: 11
  - symbol: S  # 12
    coordinates: [  0.625000000000000,  0.873842780950277,  0.875000000000000 ]
    mass: 32.065000
    reduced_to: 12
  - symbol: S  # 13
    coordinates: [  0.375000000000000,  0.126157234049728,  0.875000000000000 ]
    mass: 32.065000
    reduced_to: 13
  - symbol: S  # 14
    coordinates: [  0.875000000000000,  0.126157234049728,  0.875000000000000 ]
    mass: 32.065000
    reduced_to: 14
  - symbol: S  # 15
    coordinates: [  0.375000000000000,  0.626157234049721,  0.875000000000000 ]
    mass: 32.065000
    reduced_to: 15
  - symbol: S  # 16
    coordinates: [  0.875000000000000,  0.626157234049721,  0.875000000000000 ]
    mass: 32.065000
    reduced_to: 16
  - symbol: S  # 17
    coordinates: [  0.123842765950272,  0.125000000000000,  0.625000000000000 ]
    mass: 32.065000
    reduced_to: 17
  - symbol: S  # 18
    coordinates: [  0.623842765950272,  0.125000000000000,  0.625000000000000 ]
    mass: 32.065000
    reduced_to: 18
  - symbol: S  # 19
    coordinates: [  0.123842765950272,  0.625000000000000,  0.625000000000000 ]
    mass: 32.065000
    reduced_to: 19
  - symbol: S  # 20
    coordinates: [  0.623842765950272,  0.625000000000000,  0.625000000000000 ]
    mass: 32.065000
    reduced_to: 20
  - symbol: S  # 21
    coordinates: [  0.376157219049737,  0.375000000000000,  0.625000000000000 ]
    mass: 32.065000
    reduced_to: 21
  - symbol: S  # 22
    coordinates: [  0.876157219049723,  0.375000000000000,  0.625000000000000 ]
    mass: 32.065000
    reduced_to: 22
  - symbol: S  # 23
    coordinates: [  0.376157219049737,  0.875000000000000,  0.625000000000000 ]
    mass: 32.065000
    reduced_to: 23
  - symbol: S  # 24
    coordinates: [  0.876157219049723,  0.875000000000000,  0.625000000000000 ]
    mass: 32.065000
    reduced_to: 24
  - symbol: S  # 25
    coordinates: [  0.375000000000000,  0.123842765950272,  0.375000000000000 ]
    mass: 32.065000
    reduced_to: 25
  - symbol: S  # 26
    coordinates: [  0.875000000000000,  0.123842765950272,  0.375000000000000 ]
    mass: 32.065000
    reduced_to: 26
  - symbol: S  # 27
    coordinates: [  0.375000000000000,  0.623842765950272,  0.375000000000000 ]
    mass: 32.065000
    reduced_to: 27
  - symbol: S  # 28
    coordinates: [  0.875000000000000,  0.623842765950272,  0.375000000000000 ]
    mass: 32.065000
    reduced_to: 28
  - symbol: S  # 29
    coordinates: [  0.125000000000000,  0.376157219049737,  0.375000000000000 ]
    mass: 32.065000
    reduced_to: 29
  - symbol: S  # 30
    coordinates: [  0.625000000000000,  0.376157219049737,  0.375000000000000 ]
    mass: 32.065000
    reduced_to: 30
  - symbol: S  # 31
    coordinates: [  0.125000000000000,  0.876157219049723,  0.375000000000000 ]
    mass: 32.065000
    reduced_to: 31
  - symbol: S  # 32
    coordinates: [  0.625000000000000,  0.876157219049723,  0.375000000000000 ]
    mass: 32.065000
    reduced_to: 32
  - symbol: Cu # 33
    coordinates: [  0.000000000000000,  0.000000000000000,  0.500000000000000 ]
    mass: 63.546000
    reduced_to: 33
  - symbol: Cu # 34
    coordinates: [  0.500000000000000,  0.000000000000000,  0.500000000000000 ]
    mass: 63.546000
    reduced_to: 34
  - symbol: Cu # 35
    coordinates: [  0.000000000000000,  0.500000000000000,  0.500000000000000 ]
    mass: 63.546000
    reduced_to: 35
  - symbol: Cu # 36
    coordinates: [  0.500000000000000,  0.500000000000000,  0.500000000000000 ]
    mass: 63.546000
    reduced_to: 36
  - symbol: Cu # 37
    coordinates: [  0.250000000000000,  0.000000000000000,  0.250000000000000 ]
    mass: 63.546000
    reduced_to: 37
  - symbol: Cu # 38
    coordinates: [  0.750000000000000,  0.000000000000000,  0.250000000000000 ]
    mass: 63.546000
    reduced_to: 38
  - symbol: Cu # 39
    coordinates: [  0.250000000000000,  0.500000000000000,  0.250000000000000 ]
    mass: 63.546000
    reduced_to: 39
  - symbol: Cu # 40
    coordinates: [  0.750000000000000,  0.500000000000000,  0.250000000000000 ]
    mass: 63.546000
    reduced_to: 40
  - symbol: Cu # 41
    coordinates: [  0.250000000000000,  0.250000000000000,  0.000000000000000 ]
    mass: 63.546000
    reduced_to: 41
  - symbol: Cu # 42
    coordinates: [  0.750000000000000,  0.250000000000000,  0.000000000000000 ]
    mass: 63.546000
    reduced_to: 42
  - symbol: Cu # 43
    coordinates: [  0.250000000000000,  0.750000000000000,  0.000000000000000 ]
    mass: 63.546000
    reduced_to: 43
  - symbol: Cu # 44
    coordinates: [  0.750000000000000,  0.750000000000000,  0.000000000000000 ]
    mass: 63.546000
    reduced_to: 44
  - symbol: Cu # 45
    coordinates: [  0.000000000000000,  0.250000000000000,  0.750000000000000 ]
    mass: 63.546000
    reduced_to: 45
  - symbol: Cu # 46
    coordinates: [  0.500000000000000,  0.250000000000000,  0.750000000000000 ]
    mass: 63.546000
    reduced_to: 46
  - symbol: Cu # 47
    coordinates: [  0.000000000000000,  0.750000000000000,  0.750000000000000 ]
    mass: 63.546000
    reduced_to: 47
  - symbol: Cu # 48
    coordinates: [  0.500000000000000,  0.750000000000000,  0.750000000000000 ]
    mass: 63.546000
    reduced_to: 48
  - symbol: Fe # 49
    coordinates: [  0.000000000000000,  0.000000000000000,  0.000000000000000 ]
    mass: 55.845000
    reduced_to: 49
  - symbol: Fe # 50
    coordinates: [  0.500000000000000,  0.000000000000000,  0.000000000000000 ]
    mass: 55.845000
    reduced_to: 50
  - symbol: Fe # 51
    coordinates: [  0.000000000000000,  0.500000000000000,  0.000000000000000 ]
    mass: 55.845000
    reduced_to: 51
  - symbol: Fe # 52
    coordinates: [  0.500000000000000,  0.500000000000000,  0.000000000000000 ]
    mass: 55.845000
    reduced_to: 52
  - symbol: Fe # 53
    coordinates: [  0.250000000000000,  0.000000000000000,  0.750000000000000 ]
    mass: 55.845000
    reduced_to: 53
  - symbol: Fe # 54
    coordinates: [  0.750000000000000,  0.000000000000000,  0.750000000000000 ]
    mass: 55.845000
    reduced_to: 54
  - symbol: Fe # 55
    coordinates: [  0.250000000000000,  0.500000000000000,  0.750000000000000 ]
    mass: 55.845000
    reduced_to: 55
  - symbol: Fe # 56
    coordinates: [  0.750000000000000,  0.500000000000000,  0.750000000000000 ]
    mass: 55.845000
    reduced_to: 56
  - symbol: Fe # 57
    coordinates: [  0.250000000000000,  0.250000000000000,  0.500000000000000 ]
    mass: 55.845000
    reduced_to: 57
  - symbol: Fe # 58
    coordinates: [  0.750000000000000,  0.250000000000000,  0.500000000000000 ]
    mass: 55.845000
    reduced_to: 58
  - symbol: Fe # 59
    coordinates: [  0.250000000000000,  0.750000000000000,  0.500000000000000 ]
    mass: 55.845000
    reduced_to: 59
  - symbol: Fe # 60
    coordinates: [  0.750000000000000,  0.750000000000000,  0.500000000000000 ]
    mass: 55.845000
    reduced_to: 60
  - symbol: Fe # 61
    coordinates: [  0.000000000000000,  0.250000000000000,  0.250000000000000 ]
    mass: 55.845000
    reduced_to: 61
  - symbol: Fe # 62
    coordinates: [  0.500000000000000,  0.250000000000000,  0.250000000000000 ]
    mass: 55.845000
    reduced_to: 62
  - symbol: Fe # 63
    coordinates: [  0.000000000000000,  0.750000000000000,  0.250000000000000 ]
    mass: 55.845000
    reduced_to: 63
  - symbol: Fe # 64
    coordinates: [  0.500000000000000,  0.750000000000000,  0.250000000000000 ]
    mass: 55.845000
    reduced_to: 64

supercell:
  lattice:
  - [    10.515934895651382,     0.000000000000000,     0.000000000000000 ] # a
  - [     0.000000000000000,    10.515934895651382,     0.000000000000000 ] # b
  - [     0.000000000000000,     0.000000000000000,    10.410854009097507 ] # c
  points:
  - symbol: S  # 1
    coordinates: [  0.126157234049728,  0.125000000000000,  0.125000000000000 ]
    mass: 32.065000
    reduced_to: 1
  - symbol: S  # 2
    coordinates: [  0.626157234049721,  0.125000000000000,  0.125000000000000 ]
    mass: 32.065000
    reduced_to: 2
  - symbol: S  # 3
    coordinates: [  0.126157234049728,  0.625000000000000,  0.125000000000000 ]
    mass: 32.065000
    reduced_to: 3
  - symbol: S  # 4
    coordinates: [  0.626157234049721,  0.625000000000000,  0.125000000000000 ]
    mass: 32.065000
    reduced_to: 4
  - symbol: S  # 5
    coordinates: [  0.373842780950263,  0.375000000000000,  0.125000000000000 ]
    mass: 32.065000
    reduced_to: 5
  - symbol: S  # 6
    coordinates: [  0.873842780950277,  0.375000000000000,  0.125000000000000 ]
    mass: 32.065000
    reduced_to: 6
  - symbol: S  # 7
    coordinates: [  0.373842780950263,  0.875000000000000,  0.125000000000000 ]
    mass: 32.065000
    reduced_to: 7
  - symbol: S  # 8
    coordinates: [  0.873842780950277,  0.875000000000000,  0.125000000000000 ]
    mass: 32.065000
    reduced_to: 8
  - symbol: S  # 9
    coordinates: [  0.125000000000000,  0.373842780950263,  0.875000000000000 ]
    mass: 32.065000
    reduced_to: 9
  - symbol: S  # 10
    coordinates: [  0.625000000000000,  0.373842780950263,  0.875000000000000 ]
    mass: 32.065000
    reduced_to: 10
  - symbol: S  # 11
    coordinates: [  0.125000000000000,  0.873842780950277,  0.875000000000000 ]
    mass: 32.065000
    reduced_to: 11
  - symbol: S  # 12
    coordinates: [  0.625000000000000,  0.873842780950277,  0.875000000000000 ]
    mass: 32.065000
    reduced_to: 12
  - symbol: S  # 13
    coordinates: [  0.375000000000000,  0.126157234049728,  0.875000000000000 ]
    mass: 32.065000
    reduced_to: 13
  - symbol: S  # 14
    coordinates: [  0.875000000000000,  0.126157234049728,  0.875000000000000 ]
    mass: 32.065000
    reduced_to: 14
  - symbol: S  # 15
    coordinates: [  0.375000000000000,  0.626157234049721,  0.875000000000000 ]
    mass: 32.065000
    reduced_to: 15
  - symbol: S  # 16
    coordinates: [  0.875000000000000,  0.626157234049721,  0.875000000000000 ]
    mass: 32.065000
    reduced_to: 16
  - symbol: S  # 17
    coordinates: [  0.123842765950272,  0.125000000000000,  0.625000000000000 ]
    mass: 32.065000
    reduced_to: 17
  - symbol: S  # 18
    coordinates: [  0.623842765950272,  0.125000000000000,  0.625000000000000 ]
    mass: 32.065000
    reduced_to: 18
  - symbol: S  # 19
    coordinates: [  0.123842765950272,  0.625000000000000,  0.625000000000000 ]
    mass: 32.065000
    reduced_to: 19
  - symbol: S  # 20
    coordinates: [  0.623842765950272,  0.625000000000000,  0.625000000000000 ]
    mass: 32.065000
    reduced_to: 20
  - symbol: S  # 21
    coordinates: [  0.376157219049737,  0.375000000000000,  0.625000000000000 ]
    mass: 32.065000
    reduced_to: 21
  - symbol: S  # 22
    coordinates: [  0.876157219049723,  0.375000000000000,  0.625000000000000 ]
    mass: 32.065000
    reduced_to: 22
  - symbol: S  # 23
    coordinates: [  0.376157219049737,  0.875000000000000,  0.625000000000000 ]
    mass: 32.065000
    reduced_to: 23
  - symbol: S  # 24
    coordinates: [  0.876157219049723,  0.875000000000000,  0.625000000000000 ]
    mass: 32.065000
    reduced_to: 24
  - symbol: S  # 25
    coordinates: [  0.375000000000000,  0.123842765950272,  0.375000000000000 ]
    mass: 32.065000
    reduced_to: 25
  - symbol: S  # 26
    coordinates: [  0.875000000000000,  0.123842765950272,  0.375000000000000 ]
    mass: 32.065000
    reduced_to: 26
  - symbol: S  # 27
    coordinates: [  0.375000000000000,  0.623842765950272,  0.375000000000000 ]
    mass: 32.065000
    reduced_to: 27
  - symbol: S  # 28
    coordinates: [  0.875000000000000,  0.623842765950272,  0.375000000000000 ]
    mass: 32.065000
    reduced_to: 28
  - symbol: S  # 29
    coordinates: [  0.125000000000000,  0.376157219049737,  0.375000000000000 ]
    mass: 32.065000
    reduced_to: 29
  - symbol: S  # 30
    coordinates: [  0.625000000000000,  0.376157219049737,  0.375000000000000 ]
    mass: 32.065000
    reduced_to: 30
  - symbol: S  # 31
    coordinates: [  0.125000000000000,  0.876157219049723,  0.375000000000000 ]
    mass: 32.065000
    reduced_to: 31
  - symbol: S  # 32
    coordinates: [  0.625000000000000,  0.876157219049723,  0.375000000000000 ]
    mass: 32.065000
    reduced_to: 32
  - symbol: Cu # 33
    coordinates: [  0.000000000000000,  0.000000000000000,  0.500000000000000 ]
    mass: 63.546000
    reduced_to: 33
  - symbol: Cu # 34
    coordinates: [  0.500000000000000,  0.000000000000000,  0.500000000000000 ]
    mass: 63.546000
    reduced_to: 34
  - symbol: Cu # 35
    coordinates: [  0.000000000000000,  0.500000000000000,  0.500000000000000 ]
    mass: 63.546000
    reduced_to: 35
  - symbol: Cu # 36
    coordinates: [  0.500000000000000,  0.500000000000000,  0.500000000000000 ]
    mass: 63.546000
    reduced_to: 36
  - symbol: Cu # 37
    coordinates: [  0.250000000000000,  0.000000000000000,  0.250000000000000 ]
    mass: 63.546000
    reduced_to: 37
  - symbol: Cu # 38
    coordinates: [  0.750000000000000,  0.000000000000000,  0.250000000000000 ]
    mass: 63.546000
    reduced_to: 38
  - symbol: Cu # 39
    coordinates: [  0.250000000000000,  0.500000000000000,  0.250000000000000 ]
    mass: 63.546000
    reduced_to: 39
  - symbol: Cu # 40
    coordinates: [  0.750000000000000,  0.500000000000000,  0.250000000000000 ]
    mass: 63.546000
    reduced_to: 40
  - symbol: Cu # 41
    coordinates: [  0.250000000000000,  0.250000000000000,  0.000000000000000 ]
    mass: 63.546000
    reduced_to: 41
  - symbol: Cu # 42
    coordinates: [  0.750000000000000,  0.250000000000000,  0.000000000000000 ]
    mass: 63.546000
    reduced_to: 42
  - symbol: Cu # 43
    coordinates: [  0.250000000000000,  0.750000000000000,  0.000000000000000 ]
    mass: 63.546000
    reduced_to: 43
  - symbol: Cu # 44
    coordinates: [  0.750000000000000,  0.750000000000000,  0.000000000000000 ]
    mass: 63.546000
    reduced_to: 44
  - symbol: Cu # 45
    coordinates: [  0.000000000000000,  0.250000000000000,  0.750000000000000 ]
    mass: 63.546000
    reduced_to: 45
  - symbol: Cu # 46
    coordinates: [  0.500000000000000,  0.250000000000000,  0.750000000000000 ]
    mass: 63.546000
    reduced_to: 46
  - symbol: Cu # 47
    coordinates: [  0.000000000000000,  0.750000000000000,  0.750000000000000 ]
    mass: 63.546000
    reduced_to: 47
  - symbol: Cu # 48
    coordinates: [  0.500000000000000,  0.750000000000000,  0.750000000000000 ]
    mass: 63.546000
    reduced_to: 48
  - symbol: Fe # 49
    coordinates: [  0.000000000000000,  0.000000000000000,  0.000000000000000 ]
    mass: 55.845000
    reduced_to: 49
  - symbol: Fe # 50
    coordinates: [  0.500000000000000,  0.000000000000000,  0.000000000000000 ]
    mass: 55.845000
    reduced_to: 50
  - symbol: Fe # 51
    coordinates: [  0.000000000000000,  0.500000000000000,  0.000000000000000 ]
    mass: 55.845000
    reduced_to: 51
  - symbol: Fe # 52
    coordinates: [  0.500000000000000,  0.500000000000000,  0.000000000000000 ]
    mass: 55.845000
    reduced_to: 52
  - symbol: Fe # 53
    coordinates: [  0.250000000000000,  0.000000000000000,  0.750000000000000 ]
    mass: 55.845000
    reduced_to: 53
  - symbol: Fe # 54
    coordinates: [  0.750000000000000,  0.000000000000000,  0.750000000000000 ]
    mass: 55.845000
    reduced_to: 54
  - symbol: Fe # 55
    coordinates: [  0.250000000000000,  0.500000000000000,  0.750000000000000 ]
    mass: 55.845000
    reduced_to: 55
  - symbol: Fe # 56
    coordinates: [  0.750000000000000,  0.500000000000000,  0.750000000000000 ]
    mass: 55.845000
    reduced_to: 56
  - symbol: Fe # 57
    coordinates: [  0.250000000000000,  0.250000000000000,  0.500000000000000 ]
    mass: 55.845000
    reduced_to: 57
  - symbol: Fe # 58
    coordinates: [  0.750000000000000,  0.250000000000000,  0.500000000000000 ]
    mass: 55.845000
    reduced_to: 58
  - symbol: Fe # 59
    coordinates: [  0.250000000000000,  0.750000000000000,  0.500000000000000 ]
    mass: 55.845000
    reduced_to: 59
  - symbol: Fe # 60
    coordinates: [  0.750000000000000,  0.750000000000000,  0.500000000000000 ]
    mass: 55.845000
    reduced_to: 60
  - symbol: Fe # 61
    coordinates: [  0.000000000000000,  0.250000000000000,  0.250000000000000 ]
    mass: 55.845000
    reduced_to: 61
  - symbol: Fe # 62
    coordinates: [  0.500000000000000,  0.250000000000000,  0.250000000000000 ]
    mass: 55.845000
    reduced_to: 62
  - symbol: Fe # 63
    coordinates: [  0.000000000000000,  0.750000000000000,  0.250000000000000 ]
    mass: 55.845000
    reduced_to: 63
  - symbol: Fe # 64
    coordinates: [  0.500000000000000,  0.750000000000000,  0.250000000000000 ]
    mass: 55.845000
    reduced_to: 64

displacements:
- atom:    1
  displacement:
    [   0.0070710678118655,  0.0070710678118655,  0.0000000000000000 ]
- atom:    1
  displacement:
    [  -0.0070710678118655, -0.0070710678118655,  0.0000000000000000 ]
- atom:    1
  displacement:
    [   0.0000000000000000,  0.0000000000000000,  0.0100000000000000 ]
- atom:   33
  displacement:
    [   0.0071064845796319,  0.0000000000000000,  0.0070354727573528 ]
- atom:   33
  displacement:
    [  -0.0071064845796319,  0.0000000000000000, -0.0070354727573528 ]
- atom:   49
  displacement:
    [   0.0071064845796319,  0.0000000000000000,  0.0070354727573528 ]
- atom:   49
  displacement:
    [  -0.0071064845796319,  0.0000000000000000, -0.0070354727573528 ]
