 vasp.5.4.4.18Apr17-6-g9f103f2a35 (build Oct 30 2023 17:30:16) complex          
  
 executed on             LinuxIFC date 2024.06.28  18:24:59
 running on  256 total cores
 distrk:  each k-point on  256 cores,    1 groups
 distr:  one band on NCORES_PER_BAND=   1 cores,  256 groups


--------------------------------------------------------------------------------------------------------


 INCAR:
 POTCAR:    PAW_PBE S 06Sep2000                   
 POTCAR:     PAW_PBE Cu_pv 06Sep2000              
 POTCAR:     PAW_PBE Fe_pv 02Aug2007              

 ----------------------------------------------------------------------------- 
|                                                                             |
|           W    W    AA    RRRRR   N    N  II  N    N   GGGG   !!!           |
|           W    W   A  A   R    R  NN   N  II  NN   N  G    G  !!!           |
|           W    W  A    A  R    R  N N  N  II  N N  N  G       !!!           |
|           W WW W  AAAAAA  RRRRR   N  N N  II  N  N N  G  GGG   !            |
|           WW  WW  A    A  R   R   N   NN  II  N   NN  G    G                |
|           W    W  A    A  R    R  N    N  II  N    N   GGGG   !!!           |
|                                                                             |
|      For optimal performance we recommend to set                            |
|        NCORE= 4 - approx SQRT( number of cores)                             |
|      NCORE specifies how many cores store one orbital (NPAR=cpu/NCORE).     |
|      This setting can  greatly improve the performance of VASP for DFT.     |
|      The default,   NCORE=1            might be grossly inefficient         |
|      on modern multi-core architectures or massively parallel machines.     |
|      Do your own testing !!!!                                               |
|      Unfortunately you need to use the default for GW and RPA calculations. |
|      (for HF NCORE is supported but not extensively tested yet)             |
|                                                                             |
 ----------------------------------------------------------------------------- 

 POTCAR:    PAW_PBE S 06Sep2000                   
   SHA256 =  0fc7481fb0695f01bdc6462160264c5c84044ae9ec85a907d398b887a2bc3132 S/
   COPYR  = (c) Copyright 06Sep2000 Georg Kresse                                
   COPYR  = This file is part of the software VASP. Any use, copying, and all ot
   COPYR  = If you do not have a valid VASP license, you may not use, copy or di
   VRHFIN =S : s2p4                                                             
   LEXCH  = PE                                                                  
   EATOM  =   276.8230 eV,   20.3459 Ry                                         
                                                                                
   TITEL  = PAW_PBE S 06Sep2000                                                 
   LULTRA =        F    use ultrasoft PP ?                                      
   IUNSCR =        1    unscreen: 0-lin 1-nonlin 2-no                           
   RPACOR =    1.500    partial core radius                                     
   POMASS =   32.066; ZVAL   =    6.000    mass and valenz                      
   RCORE  =    1.900    outmost cutoff radius                                   
   RWIGS  =    2.200; RWIGS  =    1.164    wigner-seitz radius (au A)           
   ENMAX  =  258.689; ENMIN  =  194.016 eV                                      
   ICORE  =        2    local potential                                         
   LCOR   =        T    correct aug charges                                     
   LPAW   =        T    paw PP                                                  
   EAUG   =  335.092                                                            
   DEXC   =    0.000                                                            
   RMAX   =    1.942    core radius for proj-oper                               
   RAUG   =    1.300    factor for augmentation sphere                          
   RDEP   =    1.954    radius for radial grids                                 
   RDEPT  =    1.744    core radius for aug-charge                              
                                                                                
   Atomic configuration                                                         
    6 entries                                                                   
     n  l   j            E        occ.                                          
     1  0  0.50     -2405.8406   2.0000                                         
     2  0  0.50      -211.7007   2.0000                                         
     2  1  1.50      -156.4958   6.0000                                         
     3  0  0.50       -17.2562   2.0000                                         
     3  1  0.50        -7.0085   4.0000                                         
     3  2  1.50        -6.8029   0.0000                                         
   Description                                                                  
     l       E           TYP  RCUT    TYP  RCUT                                 
     0    -17.2561641     23  1.900                                             
     0    -15.8743224     23  1.900                                             
     1     -7.0085400     23  1.900                                             
     1     -2.7779785     23  1.900                                             
     2     -6.8029130     23  1.900                                             
  local pseudopotential read in
  partial core-charges read in
  partial kinetic energy density read in
  atomic valenz-charges read in
  non local Contribution for L=           0  read in
    real space projection operators read in
  non local Contribution for L=           0  read in
    real space projection operators read in
  non local Contribution for L=           1  read in
    real space projection operators read in
  non local Contribution for L=           1  read in
    real space projection operators read in
    PAW grid and wavefunctions read in
 
   number of l-projection  operators is LMAX  =           4
   number of lm-projection operators is LMMAX =           8
 
 POTCAR:     PAW_PBE Cu_pv 06Sep2000              
   SHA256 =  cb7b504e2ea725fe1f25c85a9ac77d4012ce94cd394135b722c4e25ec297f1cb Cu
   COPYR  = (c) Copyright 06Sep2000 Georg Kresse                                
   COPYR  = This file is part of the software VASP. Any use, copying, and all ot
   COPYR  = If you do not have a valid VASP license, you may not use, copy or di
   VRHFIN =Cu: d10 p1                                                           
   LEXCH  = PE                                                                  
   EATOM  =  4120.1201 eV,  302.8203 Ry                                         
                                                                                
   TITEL  = PAW_PBE Cu_pv 06Sep2000                                             
   LULTRA =        F    use ultrasoft PP ?                                      
   IUNSCR =        1    unscreen: 0-lin 1-nonlin 2-no                           
   RPACOR =    1.500    partial core radius                                     
   POMASS =   63.546; ZVAL   =   17.000    mass and valenz                      
   RCORE  =    2.000    outmost cutoff radius                                   
   RWIGS  =    2.000; RWIGS  =    1.058    wigner-seitz radius (au A)           
   ENMAX  =  368.648; ENMIN  =  276.486 eV                                      
   RCLOC  =    1.304    cutoff for local pot                                    
   LCOR   =        T    correct aug charges                                     
   LPAW   =        T    paw PP                                                  
   EAUG   =  758.233                                                            
   DEXC   =    0.000                                                            
   RMAX   =    2.046    core radius for proj-oper                               
   RAUG   =    1.300    factor for augmentation sphere                          
   RDEP   =    2.025    radius for radial grids                                 
   RDEPT  =    1.558    core radius for aug-charge                              
                                                                                
   Atomic configuration                                                         
    8 entries                                                                   
     n  l   j            E        occ.                                          
     1  0  0.50     -8850.2467   2.0000                                         
     2  0  0.50     -1062.3498   2.0000                                         
     2  1  1.50      -916.8226   6.0000                                         
     3  0  0.50      -114.6929   2.0000                                         
     3  1  1.50       -72.1325   6.0000                                         
     3  2  2.50        -5.0394  10.0000                                         
     4  0  0.50        -4.6097   1.0000                                         
     4  3  2.50        -1.3606   0.0000                                         
   Description                                                                  
     l       E           TYP  RCUT    TYP  RCUT                                 
     1    -72.1324777     23  1.700                                             
     1     -1.3605826     23  1.700                                             
     2     -5.0393776     23  2.000                                             
     2     -6.3999602     23  2.000                                             
     0     -4.6097062     23  1.800                                             
     0     14.1620818     23  1.800                                             
  local pseudopotential read in
  partial core-charges read in
  partial kinetic energy density read in
  atomic valenz-charges read in
  non local Contribution for L=           1  read in
    real space projection operators read in
  non local Contribution for L=           1  read in
    real space projection operators read in
  non local Contribution for L=           2  read in
    real space projection operators read in
  non local Contribution for L=           2  read in
    real space projection operators read in
  non local Contribution for L=           0  read in
    real space projection operators read in
  non local Contribution for L=           0  read in
    real space projection operators read in
    PAW grid and wavefunctions read in
 
   number of l-projection  operators is LMAX  =           6
   number of lm-projection operators is LMMAX =          18
 
 POTCAR:     PAW_PBE Fe_pv 02Aug2007              
   SHA256 =  5d22e414b1f82158bf2c7ecb8b97b28fd0923e48cadc1c3bf74d524558f5dd32 Fe
   COPYR  = (c) Copyright 02Aug2007 Georg Kresse                                
   COPYR  = This file is part of the software VASP. Any use, copying, and all ot
   COPYR  = If you do not have a valid VASP license, you may not use, copy or di
   VRHFIN =Fe:  3pd7s1                                                          
   LEXCH  = PE                                                                  
   EATOM  =  2457.4239 eV,  180.6156 Ry                                         
                                                                                
   TITEL  = PAW_PBE Fe_pv 02Aug2007                                             
   LULTRA =        F    use ultrasoft PP ?                                      
   IUNSCR =        1    unscreen: 0-lin 1-nonlin 2-no                           
   RPACOR =    1.750    partial core radius                                     
   POMASS =   55.847; ZVAL   =   14.000    mass and valenz                      
   RCORE  =    2.200    outmost cutoff radius                                   
   RWIGS  =    2.200; RWIGS  =    1.164    wigner-seitz radius (au A)           
   ENMAX  =  293.238; ENMIN  =  219.928 eV                                      
   ICORE  =        3    local potential                                         
   LCOR   =        T    correct aug charges                                     
   LPAW   =        T    paw PP                                                  
   EAUG   =  578.342                                                            
   DEXC   =    0.000                                                            
   RMAX   =    2.249    core radius for proj-oper                               
   RAUG   =    1.300    factor for augmentation sphere                          
   RDEP   =    2.296    radius for radial grids                                 
   RDEPT  =    1.766    core radius for aug-charge                              
                                                                                
   Atomic configuration                                                         
    8 entries                                                                   
     n  l   j            E        occ.                                          
     1  0  0.50     -6993.8440   2.0000                                         
     2  0  0.50      -814.6047   2.0000                                         
     2  1  1.50      -693.3689   6.0000                                         
     3  0  0.50       -89.4732   2.0000                                         
     3  1  1.50       -55.6373   6.0000                                         
     3  2  2.50        -3.8151   7.0000                                         
     4  0  0.50        -4.2551   1.0000                                         
     4  3  2.50        -1.3606   0.0000                                         
   Description                                                                  
     l       E           TYP  RCUT    TYP  RCUT                                 
     1    -55.6372668     23  2.000                                             
     1     -5.4423304     23  2.000                                             
     2     -3.8151096     23  2.200                                             
     2     -5.1756922     23  2.200                                             
     0     -4.2550951     23  2.200                                             
     0     27.2116520     23  2.200                                             
     3     -1.3605826     23  2.200                                             
  local pseudopotential read in
  partial core-charges read in
  partial kinetic energy density read in
  atomic valenz-charges read in
  non local Contribution for L=           1  read in
    real space projection operators read in
  non local Contribution for L=           1  read in
    real space projection operators read in
  non local Contribution for L=           2  read in
    real space projection operators read in
  non local Contribution for L=           2  read in
    real space projection operators read in
  non local Contribution for L=           0  read in
    real space projection operators read in
  non local Contribution for L=           0  read in
    real space projection operators read in
    PAW grid and wavefunctions read in
 
   number of l-projection  operators is LMAX  =           6
   number of lm-projection operators is LMMAX =          18
 

 ----------------------------------------------------------------------------- 
|                                                                             |
|  ADVICE TO THIS USER RUNNING 'VASP/VAMP'   (HEAR YOUR MASTER'S VOICE ...):  |
|                                                                             |
|      You have a (more or less) 'large supercell' and for larger cells       |
|      it might be more efficient to use real space projection opertators     |
|      So try LREAL= Auto  in the INCAR   file.                               |
|      Mind:          For very  accurate calculation you might also keep the  |
|      reciprocal projection scheme          (i.e. LREAL=.FALSE.)             |
|                                                                             |
 ----------------------------------------------------------------------------- 


 ----------------------------------------------------------------------------- 
|                                                                             |
|  ADVICE TO THIS USER RUNNING 'VASP/VAMP'   (HEAR YOUR MASTER'S VOICE ...):  |
|                                                                             |
|      You enforced a specific xc-type in the INCAR file,                     |
|      a different type was found on the POTCAR file                          |
|          I HOPE YOU KNOW, WHAT YOU ARE  DOING                               |
|                                                                             |
 ----------------------------------------------------------------------------- 

  PAW_PBE S 06Sep2000                   :
 energy of atom  1       EATOM= -276.8230
 kinetic energy error for atom=    0.0007 (will be added to EATOM!!)
   PAW_PBE Cu_pv 06Sep2000              :
 energy of atom  2       EATOM=-4120.1201
 kinetic energy error for atom=    0.0094 (will be added to EATOM!!)
   PAW_PBE Fe_pv 02Aug2007              :
 energy of atom  3       EATOM=-2457.4239
 kinetic energy error for atom=    0.0025 (will be added to EATOM!!)
 
 
 POSCAR: Fe16 Cu16 S32                           
  positions in direct lattice
  No initial velocities read in
 exchange correlation table for  LEXCH =       14
   RHO(1)=    0.500       N(1)  =     2000
   RHO(2)=  100.500       N(2)  =     4000
 


--------------------------------------------------------------------------------------------------------


 ion  position               nearest neighbor table
   1  0.126  0.125  0.124-  37 2.26  41 2.26  61 2.27  49 2.28
   2  0.626  0.125  0.124-  38 2.26  42 2.26  62 2.27  50 2.28
   3  0.126  0.625  0.124-  39 2.26  43 2.26  63 2.27  51 2.28
   4  0.626  0.625  0.124-  40 2.26  44 2.26  64 2.27  52 2.28
   5  0.374  0.375  0.124-  39 2.26  41 2.26  62 2.27  52 2.28
   6  0.874  0.375  0.124-  40 2.26  42 2.26  61 2.27  51 2.28
   7  0.374  0.875  0.124-  37 2.26  43 2.26  64 2.27  50 2.28
   8  0.874  0.875  0.124-  38 2.26  44 2.26  63 2.27  49 2.28
   9  0.125  0.374  0.874-  41 2.26  45 2.26  51 2.27  55 2.28
  10  0.625  0.374  0.874-  42 2.26  46 2.26  52 2.27  56 2.28
  11  0.125  0.874  0.874-  43 2.26  47 2.26  49 2.27  53 2.28
  12  0.625  0.874  0.874-  44 2.26  48 2.26  50 2.27  54 2.28
  13  0.375  0.126  0.874-  41 2.26  46 2.26  50 2.27  53 2.28
  14  0.875  0.126  0.874-  42 2.26  45 2.26  49 2.27  54 2.28
  15  0.375  0.626  0.874-  43 2.26  48 2.26  52 2.27  55 2.28
  16  0.875  0.626  0.874-  44 2.26  47 2.26  51 2.27  56 2.28
  17  0.124  0.125  0.624-  45 2.26  33 2.26  53 2.27  57 2.28
  18  0.624  0.125  0.624-  46 2.26  34 2.26  54 2.27  58 2.28
  19  0.124  0.625  0.624-  47 2.26  35 2.26  55 2.27  59 2.28
  20  0.624  0.625  0.624-  48 2.26  36 2.26  56 2.27  60 2.28
  21  0.376  0.375  0.624-  46 2.26  36 2.26  55 2.27  57 2.28
  22  0.876  0.375  0.624-  45 2.26  35 2.26  56 2.27  58 2.28
  23  0.376  0.875  0.624-  48 2.26  34 2.26  53 2.27  59 2.28
  24  0.876  0.875  0.624-  47 2.26  33 2.26  54 2.27  60 2.28
  25  0.375  0.124  0.374-  34 2.26  37 2.26  57 2.27  62 2.28
  26  0.875  0.124  0.374-  33 2.26  38 2.26  58 2.27  61 2.28
  27  0.375  0.624  0.374-  36 2.26  39 2.26  59 2.27  64 2.28
  28  0.875  0.624  0.374-  35 2.26  40 2.26  60 2.27  63 2.28
  29  0.125  0.376  0.374-  35 2.26  39 2.26  57 2.27  61 2.28
  30  0.625  0.376  0.374-  36 2.26  40 2.26  58 2.27  62 2.28
  31  0.125  0.876  0.374-  33 2.26  37 2.26  59 2.27  63 2.28
  32  0.625  0.876  0.374-  34 2.26  38 2.26  60 2.27  64 2.28
  33  0.000  0.000  0.501-  26 2.26  31 2.26  17 2.26  24 2.26
  34  0.500  0.000  0.501-  25 2.26  32 2.26  18 2.26  23 2.26
  35  0.000  0.500  0.501-  28 2.26  29 2.26  19 2.26  22 2.26
  36  0.500  0.500  0.501-  27 2.26  30 2.26  20 2.26  21 2.26
  37  0.250  0.000  0.251-   1 2.26   7 2.26  25 2.26  31 2.26
  38  0.750  0.000  0.251-   2 2.26   8 2.26  26 2.26  32 2.26
  39  0.250  0.500  0.251-   3 2.26   5 2.26  27 2.26  29 2.26
  40  0.750  0.500  0.251-   4 2.26   6 2.26  28 2.26  30 2.26
  41  0.250  0.250  0.001-   9 2.26  13 2.26   1 2.26   5 2.26
  42  0.750  0.250  0.001-  10 2.26  14 2.26   2 2.26   6 2.26
  43  0.250  0.750  0.001-  11 2.26  15 2.26   3 2.26   7 2.26
  44  0.750  0.750  0.001-  12 2.26  16 2.26   4 2.26   8 2.26
  45  0.000  0.250  0.751-  17 2.26  22 2.26   9 2.26  14 2.26
  46  0.500  0.250  0.751-  18 2.26  21 2.26  10 2.26  13 2.26
  47  0.000  0.750  0.751-  19 2.26  24 2.26  11 2.26  16 2.26
  48  0.500  0.750  0.751-  20 2.26  23 2.26  12 2.26  15 2.26
  49  0.000  0.000  0.001-  11 2.27  14 2.27   1 2.28   8 2.28
  50  0.500  0.000  0.001-  12 2.27  13 2.27   2 2.28   7 2.28
  51  0.000  0.500  0.001-   9 2.27  16 2.27   3 2.28   6 2.28
  52  0.500  0.500  0.001-  10 2.27  15 2.27   4 2.28   5 2.28
  53  0.250  0.000  0.751-  17 2.27  23 2.27  11 2.28  13 2.28
  54  0.750  0.000  0.751-  18 2.27  24 2.27  12 2.28  14 2.28
  55  0.250  0.500  0.751-  19 2.27  21 2.27   9 2.28  15 2.28
  56  0.750  0.500  0.751-  20 2.27  22 2.27  10 2.28  16 2.28
  57  0.250  0.250  0.501-  25 2.27  29 2.27  17 2.28  21 2.28
  58  0.750  0.250  0.501-  26 2.27  30 2.27  18 2.28  22 2.28
  59  0.250  0.750  0.501-  27 2.27  31 2.27  19 2.28  23 2.28
  60  0.750  0.750  0.501-  28 2.27  32 2.27  20 2.28  24 2.28
  61  0.000  0.250  0.251-   1 2.27   6 2.27  26 2.28  29 2.28
  62  0.500  0.250  0.251-   2 2.27   5 2.27  25 2.28  30 2.28
  63  0.000  0.750  0.251-   3 2.27   8 2.27  28 2.28  31 2.28
  64  0.500  0.750  0.251-   4 2.27   7 2.27  27 2.28  32 2.28
 
  LATTYP: Found a base centered orthorhombic cell.
 ALAT       =    14.7635566194
 B/A-ratio  =     1.0140471527
 C/A-ratio  =     0.7054619201
  
  Lattice vectors:
  
 A1 = (  10.5127330000,   0.0733220000,   0.0000000000)
 A2 = (  -0.0733220000, -10.5127330000,   0.0000000000)
 A3 = (   0.0000000000,   0.0000000000, -10.4151270000)


Analysis of symmetry for initial positions (statically):
=====================================================================
 Subroutine PRICEL returns following result:
 
  LATTYP: Found a face centered orthorhombic cell.
 ALAT       =     7.3817783097
 B/A-ratio  =     1.0140471527
 C/A-ratio  =     1.4109238402
  
  Lattice vectors:
  
 A1 = (  -2.6465137500,  -2.6465137500,   5.2075635000)
 A2 = (  -2.6098527500,   2.6098527500,   5.2075635000)
 A3 = (  -5.2563665000,  -0.0366610000,   0.0000000000)
 
   8 primitive cells build up your supercell.
 

 Routine SETGRP: Setting up the symmetry group for a 
 base centered orthorhombic supercell.


 Subroutine GETGRP returns: Found  4 space group operations
 (whereof  2 operations were pure point group operations)
 out of a pool of  8 trial point group operations.


The static configuration has the point symmetry C_2 .
 The point group associated with its full space group is C_2v.


Analysis of symmetry for dynamics (positions and initial velocities):
=====================================================================
 Subroutine PRICEL returns following result:
 
  LATTYP: Found a face centered orthorhombic cell.
 ALAT       =     7.3817783097
 B/A-ratio  =     1.0140471527
 C/A-ratio  =     1.4109238402
  
  Lattice vectors:
  
 A1 = (  -2.6465137500,  -2.6465137500,   5.2075635000)
 A2 = (  -2.6098527500,   2.6098527500,   5.2075635000)
 A3 = (  -5.2563665000,  -0.0366610000,   0.0000000000)
 
   8 primitive cells build up your supercell.
 

 Routine SETGRP: Setting up the symmetry group for a 
 base centered orthorhombic supercell.


 Subroutine GETGRP returns: Found  4 space group operations
 (whereof  2 operations were pure point group operations)
 out of a pool of  8 trial point group operations.


The dynamic configuration has the point symmetry C_2 .
 The point group associated with its full space group is C_2v.


Analysis of structural, dynamic, and magnetic symmetry:
=====================================================================
 Subroutine PRICEL returns following result:
 
  LATTYP: Found a face centered orthorhombic cell.
 ALAT       =     7.3817783097
 B/A-ratio  =     1.0140471527
 C/A-ratio  =     1.4109238402
  
  Lattice vectors:
  
 A1 = (  -2.6465137500,  -2.6465137500,   5.2075635000)
 A2 = (  -2.6098527500,   2.6098527500,   5.2075635000)
 A3 = (  -5.2563665000,  -0.0366610000,   0.0000000000)
 
   8 primitive cells build up your supercell.
 

 Routine SETGRP: Setting up the symmetry group for a 
 base centered orthorhombic supercell.


 Subroutine GETGRP returns: Found  4 space group operations
 (whereof  2 operations were pure point group operations)
 out of a pool of  8 trial point group operations.


The magnetic configuration has the point symmetry C_2 .
 The point group associated with its full space group is C_2v.


 Subroutine INISYM returns: Found  4 space group operations
 (whereof  2 operations are pure point group operations),
 and found     8 'primitive' translations

 
 
 KPOINTS: Automatic mesh                          

Automatic generation of k-mesh.
Space group operators:
 irot       det(A)        alpha          n_x          n_y          n_z        tau_x        tau_y        tau_z
    1     1.000000     0.000000     1.000000     0.000000     0.000000     0.000000     0.000000     0.000000
    2     1.000000   180.000000     0.000000     0.000000     1.000000     0.000000     0.000000     0.000000
    3    -1.000000   180.000000     0.707107     0.707107     0.000000    -0.750000    -0.000000     0.750000
    4    -1.000000   180.000000     0.707107    -0.707107     0.000000    -0.750000    -0.000000     0.750000
 
 Subroutine IBZKPT returns following result:
 ===========================================
 
 Found      1 irreducible k-points:
 
 Following reciprocal coordinates:
            Coordinates               Weight
  0.000000  0.000000  0.000000      1.000000
 
 Following cartesian coordinates:
            Coordinates               Weight
  0.000000  0.000000  0.000000      1.000000
 
 
 Subroutine IBZKPT_HF returns following result:
 ==============================================
 
 Found      1 k-points in 1st BZ
 the following      1 k-points will be used (e.g. in the exchange kernel)
 Following reciprocal coordinates:   # in IRBZ
  0.000000  0.000000  0.000000    1.00000000   1 t-inv F


--------------------------------------------------------------------------------------------------------




 Dimension of arrays:
   k-points           NKPTS =      1   k-points in BZ     NKDIM =      1   number of bands    NBANDS=    512
   number of dos      NEDOS =    301   number of ions     NIONS =     64
   non local maximal  LDIM  =      6   non local SUM 2l+1 LMDIM =     18
   total plane-waves  NPLWV = 829440
   max r-space proj   IRMAX =      1   max aug-charges    IRDMAX=  22900
   dimension x,y,z NGX =    96 NGY =   96 NGZ =   90
   dimension x,y,z NGXF=   192 NGYF=  192 NGZF=  180
   support grid    NGXF=   192 NGYF=  192 NGZF=  180
   ions per type =              32  16  16
   NGX,Y,Z   is equivalent  to a cutoff of  15.18, 15.18, 14.37 a.u.
   NGXF,Y,Z  is equivalent  to a cutoff of  30.36, 30.36, 28.73 a.u.

 SYSTEM =  CuFeS2                                  
 POSCAR =  Fe16 Cu16 S32                           

 Startparameter for this run:
   NWRITE =      2    write-flag & timer
   PREC   = accura    normal or accurate (medium, high low for compatibility)
   ISTART =      1    job   : 0-new  1-cont  2-samecut
   ICHARG =      1    charge: 1-file 2-atom 10-const
   ISPIN  =      2    spin polarized calculation?
   LNONCOLLINEAR =      F non collinear calculations
   LSORBIT =      F    spin-orbit coupling
   INIWAV =      1    electr: 0-lowe 1-rand  2-diag
   LASPH  =      F    aspherical Exc in radial PAW
   METAGGA=      F    non-selfconsistent MetaGGA calc.

 Electronic Relaxation 1
   ENCUT  =  700.0 eV  51.45 Ry    7.17 a.u.  22.68 22.68 22.47*2*pi/ulx,y,z
   ENINI  =  700.0     initial cutoff
   ENAUG  =  758.2 eV  augmentation charge cutoff
   NELM   =    500;   NELMIN=  2; NELMDL=  0     # of ELM steps 
   EDIFF  = 0.1E-07   stopping-criterion for ELM
   LREAL  =      F    real-space projection
   NLSPLINE    = F    spline interpolate recip. space projectors
   LCOMPAT=      F    compatible to vasp.4.4
   GGA_COMPAT  = T    GGA compatible to vasp.4.4-vasp.4.6
   LMAXPAW     = -100 max onsite density
   LMAXMIX     =    4 max onsite mixed and CHGCAR
   VOSKOWN=      0    Vosko Wilk Nusair interpolation
   ROPT   =    0.00000   0.00000   0.00000
 Ionic relaxation
   EDIFFG = -.1E-04   stopping-criterion for IOM
   NSW    =      0    number of steps for IOM
   NBLOCK =      1;   KBLOCK =      1    inner block; outer block 
   IBRION =     -1    ionic relax: 0-MD 1-quasi-New 2-CG
   NFREE  =      0    steps in history (QN), initial steepest desc. (CG)
   ISIF   =      2    stress and relaxation
   IWAVPR =     10    prediction:  0-non 1-charg 2-wave 3-comb
   ISYM   =      2    0-nonsym 1-usesym 2-fastsym
   LCORR  =      T    Harris-Foulkes like correction to forces

   POTIM  = 0.5000    time-step for ionic-motion
   TEIN   =    0.0    initial temperature
   TEBEG  =    0.0;   TEEND  =   0.0 temperature during run
   SMASS  =  -3.00    Nose mass-parameter (am)
   estimated Nose-frequenzy (Omega)   =  0.10E-29 period in steps =****** mass=  -0.253E-26a.u.
   SCALEE = 1.0000    scale energy and forces
   NPACO  =    256;   APACO  = 16.0  distance and # of slots for P.C.
   PSTRESS=    0.0 pullay stress

  Mass of Ions in am
   POMASS =  32.07 63.55 55.85
  Ionic Valenz
   ZVAL   =   6.00 17.00 14.00
  Atomic Wigner-Seitz radii
   RWIGS  =  -1.00 -1.00 -1.00
  virtual crystal weights 
   VCA    =   1.00  1.00  1.00
   NELECT =     688.0000    total number of electrons
   NUPDOWN=      -1.0000    fix difference up-down

 DOS related values:
   EMIN   =  10.00;   EMAX   =-10.00  energy-range for DOS
   EFERMI =   0.00
   ISMEAR =     0;   SIGMA  =   0.03  broadening in eV -4-tet -1-fermi 0-gaus

 Electronic relaxation 2 (details)
   IALGO  =     38    algorithm
   LDIAG  =      T    sub-space diagonalisation (order eigenvalues)
   LSUBROT=      F    optimize rotation matrix (better conditioning)
   TURBO    =      0    0=normal 1=particle mesh
   IRESTART =      0    0=no restart 2=restart with 2 vectors
   NREBOOT  =      0    no. of reboots
   NMIN     =      0    reboot dimension
   EREF     =   0.00    reference energy to select bands
   IMIX   =      4    mixing-type and parameters
     AMIX     =   0.40;   BMIX     =  1.00
     AMIX_MAG =   1.60;   BMIX_MAG =  1.00
     AMIN     =   0.10
     WC   =   100.;   INIMIX=   1;  MIXPRE=   1;  MAXMIX= -45

 Intra band minimization:
   WEIMIN = 0.0000     energy-eigenvalue tresh-hold
   EBREAK =  0.49E-11  absolut break condition
   DEPER  =   0.30     relativ break condition  

   TIME   =   0.40     timestep for ELM

  volume/ion in A,a.u.               =      17.98       121.36
  Fermi-wavevector in a.u.,A,eV,Ry     =   1.379048  2.606023 25.875201  1.901774
  Thomas-Fermi vector in A             =   2.504053
 
 Write flags
   LWAVE        =      T    write WAVECAR
   LDOWNSAMPLE  =      F    k-point downsampling of WAVECAR
   LCHARG       =      T    write CHGCAR
   LVTOT        =      F    write LOCPOT, total local potential
   LVHAR        =      F    write LOCPOT, Hartree potential only
   LELF         =      F    write electronic localiz. function (ELF)
   LORBIT       =     11    0 simple, 1 ext, 2 COOP (PROOUT), +10 PAW based schemes


 Dipole corrections
   LMONO  =      F    monopole corrections only (constant potential shift)
   LDIPOL =      F    correct potential (dipole corrections)
   IDIPOL =      0    1-x, 2-y, 3-z, 4-all directions 
   EPSILON=  1.0000000 bulk dielectric constant

 LDA+U is selected, type is set to LDAUTYPE =  2
   angular momentum for each species LDAUL =     2    2    2
   U (eV)           for each species LDAUU =   0.0  0.1  4.7
   J (eV)           for each species LDAUJ =   0.0  0.0  0.0
 Exchange correlation treatment:
   GGA     =    PS    GGA type
   LEXCH   =    14    internal setting for exchange type
   VOSKOWN=      0    Vosko Wilk Nusair interpolation
   LHFCALC =     F    Hartree Fock is set to
   LHFONE  =     F    Hartree Fock one center treatment
   AEXX    =    0.0000 exact exchange contribution

 Linear response parameters
   LEPSILON=     F    determine dielectric tensor
   LRPA    =     F    only Hartree local field effects (RPA)
   LNABLA  =     F    use nabla operator in PAW spheres
   LVEL    =     F    velocity operator in full k-point grid
   LINTERFAST=   F  fast interpolation
   KINTER  =     0    interpolate to denser k-point grid
   CSHIFT  =0.1000    complex shift for real part using Kramers Kronig
   OMEGAMAX=  -1.0    maximum frequency
   DEG_THRESHOLD= 0.2000000E-02 threshold for treating states as degnerate
   RTIME   =   -0.100 relaxation time in fs
  (WPLASMAI=    0.000 imaginary part of plasma frequency in eV, 0.658/RTIME)
   DFIELD  = 0.0000000 0.0000000 0.0000000 field for delta impulse in time
 
 Orbital magnetization related:
   ORBITALMAG=     F  switch on orbital magnetization
   LCHIMAG   =     F  perturbation theory with respect to B field
   DQ        =  0.001000  dq finite difference perturbation B field
   LLRAUG    =     F  two centre corrections for induced B field

 PEAD related settings:
   LPEAD      =     T    switch on PEAD
   IPEAD      =     4    finite difference order for dpsi/dk
   LCALCPOL   =     T    calculate macroscopic polarization
   LCALCEPS   =     F    calculate dielectric tensor
   EFIELD_PEAD=    0.0000    0.0000    0.0000
   SKIP_EDOTP =     F
   LRPA       =     F
   SKIP_SCF   =     F


--------------------------------------------------------------------------------------------------------


 Static calculation
 charge density and potential will be updated during run
 spin polarized calculation
 Variant of blocked Davidson
 Davidson routine will perform the subspace rotation
 perform sub-space diagonalisation
    after iterative eigenvector-optimisation
 modified Broyden-mixing scheme, WC =      100.0
 initial mixing is a Kerker type mixing with AMIX =  0.4000 and BMIX =      1.0000
 Hartree-type preconditioning will be used
 using additional bands          168
 reciprocal scheme for non local part
 use partial core corrections
 calculate Harris-corrections to forces 
   (improved forces if not selfconsistent)
 use gradient corrections 
 use of overlap-Matrix (Vanderbilt PP)
 Gauss-broadening in eV      SIGMA  =   0.03


--------------------------------------------------------------------------------------------------------


  energy-cutoff  :      700.00
  volume of cell :     1151.00
      direct lattice vectors                 reciprocal lattice vectors
    10.512733000  0.073322000  0.000000000     0.095127371 -0.000663474  0.000000000
     0.073322000 10.512733000  0.000000000    -0.000663474  0.095127371  0.000000000
     0.000000000  0.000000000 10.415127000     0.000000000  0.000000000  0.096014192

  length of vectors
    10.512988692 10.512988692 10.415127000     0.095129684  0.095129684  0.096014192


 
 old parameters found on file WAVECAR:
  energy-cutoff  :      700.00
  volume of cell :     1151.00
      direct lattice vectors                 reciprocal lattice vectors
    10.512733000  0.073322000  0.000000000     0.095127371 -0.000663474  0.000000000
     0.073322000 10.512733000  0.000000000    -0.000663474  0.095127371  0.000000000
     0.000000000  0.000000000 10.415127000     0.000000000  0.000000000  0.096014192

  length of vectors

 
 k-points in units of 2pi/SCALE and weight: Automatic mesh                          
   0.00000000  0.00000000  0.00000000       1.000
 
 k-points in reciprocal lattice and weights: Automatic mesh                          
   0.00000000  0.00000000  0.00000000       1.000
 
 position of ions in fractional coordinates (direct lattice) 
   0.12615900  0.12508200  0.12421900
   0.62615900  0.12508200  0.12421900
   0.12615900  0.62508200  0.12421900
   0.62615900  0.62508200  0.12421900
   0.37384100  0.37491800  0.12421900
   0.87384100  0.37491800  0.12421900
   0.37384100  0.87491800  0.12421900
   0.87384100  0.87491800  0.12421900
   0.12491800  0.37384100  0.87421900
   0.62491800  0.37384100  0.87421900
   0.12491800  0.87384100  0.87421900
   0.62491800  0.87384100  0.87421900
   0.37508200  0.12615900  0.87421900
   0.87508200  0.12615900  0.87421900
   0.37508200  0.62615900  0.87421900
   0.87508200  0.62615900  0.87421900
   0.12384100  0.12491800  0.62421900
   0.62384100  0.12491800  0.62421900
   0.12384100  0.62491800  0.62421900
   0.62384100  0.62491800  0.62421900
   0.37615900  0.37508200  0.62421900
   0.87615900  0.37508200  0.62421900
   0.37615900  0.87508200  0.62421900
   0.87615900  0.87508200  0.62421900
   0.37491800  0.12384100  0.37421900
   0.87491800  0.12384100  0.37421900
   0.37491800  0.62384100  0.37421900
   0.87491800  0.62384100  0.37421900
   0.12508200  0.37615900  0.37421900
   0.62508200  0.37615900  0.37421900
   0.12508200  0.87615900  0.37421900
   0.62508200  0.87615900  0.37421900
   0.00000000  0.00000000  0.50067600
   0.50000000  0.00000000  0.50067600
   0.00000000  0.50000000  0.50067600
   0.50000000  0.50000000  0.50067600
   0.25000000  0.00000000  0.25067600
   0.75000000  0.00000000  0.25067600
   0.25000000  0.50000000  0.25067600
   0.75000000  0.50000000  0.25067600
   0.25000000  0.25000000  0.00067600
   0.75000000  0.25000000  0.00067600
   0.25000000  0.75000000  0.00067600
   0.75000000  0.75000000  0.00067600
   0.00000000  0.25000000  0.75067600
   0.50000000  0.25000000  0.75067600
   0.00000000  0.75000000  0.75067600
   0.50000000  0.75000000  0.75067600
   0.00000000  0.00000000  0.00088700
   0.50000000  0.00000000  0.00088700
   0.00000000  0.50000000  0.00088700
   0.50000000  0.50000000  0.00088700
   0.25000000  0.00000000  0.75088700
   0.75000000  0.00000000  0.75088700
   0.25000000  0.50000000  0.75088700
   0.75000000  0.50000000  0.75088700
   0.25000000  0.25000000  0.50088700
   0.75000000  0.25000000  0.50088700
   0.25000000  0.75000000  0.50088700
   0.75000000  0.75000000  0.50088700
   0.00000000  0.25000000  0.25088700
   0.50000000  0.25000000  0.25088700
   0.00000000  0.75000000  0.25088700
   0.50000000  0.75000000  0.25088700
 
 position of ions in cartesian coordinates  (Angst):
   1.33544714  1.32420390  1.29375666
   6.59181364  1.36086490  1.29375666
   1.37210814  6.58057040  1.29375666
   6.62847464  6.61723140  1.29375666
   3.95758036  3.96882360  1.29375666
   9.21394686  4.00548460  1.29375666
   3.99424136  9.22519010  1.29375666
   9.25060786  9.26185110  1.29375666
   1.34064035  3.93924986  9.10510191
   6.59700685  3.97591086  9.10510191
   1.37730135  9.19561636  9.10510191
   6.63366785  9.23227736  9.10510191
   3.95238715  1.35377764  9.10510191
   9.20875365  1.39043864  9.10510191
   3.98904815  6.61014414  9.10510191
   9.24541465  6.64680514  9.10510191
   1.31106661  1.32230985  6.50132016
   6.56743311  1.35897085  6.50132016
   1.34772761  6.57867635  6.50132016
   6.60409411  6.61533735  6.50132016
   3.98196089  3.97071765  6.50132016
   9.23832739  4.00737865  6.50132016
   4.01862189  9.22708415  6.50132016
   9.27498839  9.26374515  6.50132016
   3.95049310  1.32939711  3.89753841
   9.20685960  1.36605811  3.89753841
   3.98715410  6.58576361  3.89753841
   9.24352060  6.62242461  3.89753841
   1.34253440  3.96363039  3.89753841
   6.59890090  4.00029139  3.89753841
   1.37919540  9.21999689  3.89753841
   6.63556190  9.25665789  3.89753841
   0.00000000  0.00000000  5.21460413
   5.25636650  0.03666100  5.21460413
   0.03666100  5.25636650  5.21460413
   5.29302750  5.29302750  5.21460413
   2.62818325  0.01833050  2.61082238
   7.88454975  0.05499150  2.61082238
   2.66484425  5.27469700  2.61082238
   7.92121075  5.31135800  2.61082238
   2.64651375  2.64651375  0.00704063
   7.90288025  2.68317475  0.00704063
   2.68317475  7.90288025  0.00704063
   7.93954125  7.93954125  0.00704063
   0.01833050  2.62818325  7.81838588
   5.27469700  2.66484425  7.81838588
   0.05499150  7.88454975  7.81838588
   5.31135800  7.92121075  7.81838588
   0.00000000  0.00000000  0.00923822
   5.25636650  0.03666100  0.00923822
   0.03666100  5.25636650  0.00923822
   5.29302750  5.29302750  0.00923822
   2.62818325  0.01833050  7.82058347
   7.88454975  0.05499150  7.82058347
   2.66484425  5.27469700  7.82058347
   7.92121075  5.31135800  7.82058347
   2.64651375  2.64651375  5.21680172
   7.90288025  2.68317475  5.21680172
   2.68317475  7.90288025  5.21680172
   7.93954125  7.93954125  5.21680172
   0.01833050  2.62818325  2.61301997
   5.27469700  2.66484425  2.61301997
   0.05499150  7.88454975  2.61301997
   5.31135800  7.92121075  2.61301997
 


--------------------------------------------------------------------------------------------------------


 k-point  1 :   0.0000 0.0000 0.0000  plane waves:   48439

 maximum and minimum number of plane-waves per node :     48439    48439

 maximum number of plane-waves:     48439
 maximum index in each direction: 
   IXMAX=   22   IYMAX=   22   IZMAX=   22
   IXMIN=  -22   IYMIN=  -22   IZMIN=  -22


 serial   3D FFT for wavefunctions
 parallel 3D FFT for charge:
    minimum data exchange during FFTs selected (reduces bandwidth)


 total amount of memory used by VASP MPI-rank0   180294. kBytes
=======================================================================

   base      :      30000. kBytes
   nonl-proj :      70819. kBytes
   fftplans  :       4588. kBytes
   grid      :      69719. kBytes
   one-center:       1990. kBytes
   wavefun   :       3178. kBytes
 
     INWAV:  cpu time    2.0687: real time    2.2004
 Broyden mixing: mesh for mixing (old mesh)
   NGX = 45   NGY = 45   NGZ = 45
  (NGX  =192   NGY  =192   NGZ  =180)
  gives a total of  91125 points

 initial charge density was supplied:
 number of electron     688.0000472 magnetization      -0.0000000
 keeping initial charge density in first step


--------------------------------------------------------------------------------------------------------


 Maximum index for augmentation-charges          901 (set IRDMAX)


--------------------------------------------------------------------------------------------------------


 First call to EWALD:  gamma=   0.169
 Maximum number of real-space cells 3x 3x 3
 Maximum number of reciprocal cells 3x 3x 3

    FEWALD:  cpu time    0.0034: real time    0.0035


--------------------------------------- Iteration      1(   1)  ---------------------------------------


    POTLOK:  cpu time    0.4683: real time    0.5007
    SETDIJ:  cpu time    0.0170: real time    0.0171
     EDDAV:  cpu time    5.5001: real time    5.5909
       DOS:  cpu time    0.0022: real time    0.0022
    CHARGE:  cpu time    0.5816: real time    0.5849
    MIXING:  cpu time    0.0037: real time    0.0037
    --------------------------------------------
      LOOP:  cpu time    6.5729: real time    6.6996

 eigenvalue-minimisations  :  1024
 total energy-change (2. order) :-0.3273958E+03  (-0.4407089E-09)
 number of electron     688.0000471 magnetization      -0.0000000
 augmentation part      282.2869596 magnetization      -0.0000000

 Broyden mixing:
  rms(total) = 0.11701E+00    rms(broyden)= 0.11699E+00
  rms(prec ) = 0.12765E+00
  weight for this iteration     100.00

 Free energy of the ion-electron system (eV)
  ---------------------------------------------------
  alpha Z        PSCENC =      2355.47729106
  Ewald energy   TEWEN  =    -62462.07112926
  -Hartree energ DENC   =    -42957.07945471
  -exchange      EXHF   =         0.00000000
  -V(xc)+E(xc)   XCENC  =      3286.50007712
  PAW double counting   =    112276.59352917  -115970.60990266
  entropy T*S    EENTRO =        -0.00000000
  eigenvalues    EBANDS =    -10876.27130884
  atomic energy  EATOM  =    114020.06510763
  Solvation  Ediel_sol  =         0.00000000
  ---------------------------------------------------
  free energy    TOTEN  =      -327.39579049 eV

  energy without entropy =     -327.39579049  energy(sigma->0) =     -327.39579049


--------------------------------------------------------------------------------------------------------




--------------------------------------- Iteration      1(   2)  ---------------------------------------


    POTLOK:  cpu time    0.1194: real time    0.1231
    SETDIJ:  cpu time    0.0128: real time    0.0128
     EDDAV:  cpu time   15.9598: real time   16.0759
       DOS:  cpu time    0.0009: real time    0.0009
    CHARGE:  cpu time    0.5997: real time    0.6028
    MIXING:  cpu time    0.0027: real time    0.0142
    --------------------------------------------
      LOOP:  cpu time   16.6953: real time   16.8298

 eigenvalue-minimisations  :  2560
 total energy-change (2. order) :-0.7390240E-02  (-0.1791995E-01)
 number of electron     688.0000471 magnetization      -0.0000000
 augmentation part      282.2909954 magnetization      -0.0000000

 Broyden mixing:
  rms(total) = 0.14313E+00    rms(broyden)= 0.14312E+00
  rms(prec ) = 0.16822E+00
  weight for this iteration     100.00

 eigenvalues of (default mixing * dielectric matrix)
  average eigenvalue GAMMA=   0.4594
  0.4594

 Free energy of the ion-electron system (eV)
  ---------------------------------------------------
  alpha Z        PSCENC =      2355.47729106
  Ewald energy   TEWEN  =    -62462.07112926
  -Hartree energ DENC   =    -42967.05707578
  -exchange      EXHF   =         0.00000000
  -V(xc)+E(xc)   XCENC  =      3287.10271965
  PAW double counting   =    112280.86247959  -115974.93714004
  entropy T*S    EENTRO =        -0.00000000
  eigenvalues    EBANDS =    -10866.84543357
  atomic energy  EATOM  =    114020.06510763
  Solvation  Ediel_sol  =         0.00000000
  ---------------------------------------------------
  free energy    TOTEN  =      -327.40318073 eV

  energy without entropy =     -327.40318073  energy(sigma->0) =     -327.40318073


--------------------------------------------------------------------------------------------------------




--------------------------------------- Iteration      1(   3)  ---------------------------------------


    POTLOK:  cpu time    0.1229: real time    0.1241
    SETDIJ:  cpu time    0.0128: real time    0.0128
     EDDAV:  cpu time   15.4857: real time   15.5997
       DOS:  cpu time    0.0008: real time    0.0008
    CHARGE:  cpu time    0.5854: real time    0.5885
    MIXING:  cpu time    0.0016: real time    0.0038
    --------------------------------------------
      LOOP:  cpu time   16.2093: real time   16.3297

 eigenvalue-minimisations  :  2560
 total energy-change (2. order) : 0.8218112E-02  (-0.1093207E-01)
 number of electron     688.0000471 magnetization       0.0000000
 augmentation part      282.2862978 magnetization       0.0000000

 Broyden mixing:
  rms(total) = 0.55284E-01    rms(broyden)= 0.55280E-01
  rms(prec ) = 0.58185E-01
  weight for this iteration     100.00

 eigenvalues of (default mixing * dielectric matrix)
  average eigenvalue GAMMA=   0.4792
  0.6008  0.3577

 Free energy of the ion-electron system (eV)
  ---------------------------------------------------
  alpha Z        PSCENC =      2355.47729106
  Ewald energy   TEWEN  =    -62462.07112926
  -Hartree energ DENC   =    -42964.18269358
  -exchange      EXHF   =         0.00000000
  -V(xc)+E(xc)   XCENC  =      3286.89751717
  PAW double counting   =    112278.73086840  -115972.61562129
  entropy T*S    EENTRO =        -0.00000000
  eigenvalues    EBANDS =    -10869.69630274
  atomic energy  EATOM  =    114020.06510763
  Solvation  Ediel_sol  =         0.00000000
  ---------------------------------------------------
  free energy    TOTEN  =      -327.39496262 eV

  energy without entropy =     -327.39496262  energy(sigma->0) =     -327.39496262


--------------------------------------------------------------------------------------------------------




--------------------------------------- Iteration      1(   4)  ---------------------------------------


    POTLOK:  cpu time    0.1174: real time    0.1213
    SETDIJ:  cpu time    0.0126: real time    0.0126
     EDDAV:  cpu time   15.5424: real time   15.6564
       DOS:  cpu time    0.0009: real time    0.0009
    CHARGE:  cpu time    0.5864: real time    0.5896
    MIXING:  cpu time    0.0013: real time    0.0013
    --------------------------------------------
      LOOP:  cpu time   16.2608: real time   16.3821

 eigenvalue-minimisations  :  2560
 total energy-change (2. order) : 0.1043946E-03  (-0.3806759E-03)
 number of electron     688.0000471 magnetization      -0.0000000
 augmentation part      282.2808249 magnetization      -0.0000000

 Broyden mixing:
  rms(total) = 0.22334E-01    rms(broyden)= 0.22334E-01
  rms(prec ) = 0.23150E-01
  weight for this iteration     100.00

 eigenvalues of (default mixing * dielectric matrix)
  average eigenvalue GAMMA=   0.8804
  1.6780  0.6218  0.3415

 Free energy of the ion-electron system (eV)
  ---------------------------------------------------
  alpha Z        PSCENC =      2355.47729106
  Ewald energy   TEWEN  =    -62462.07112926
  -Hartree energ DENC   =    -42966.49295584
  -exchange      EXHF   =         0.00000000
  -V(xc)+E(xc)   XCENC  =      3286.99910250
  PAW double counting   =    112287.68461840  -115981.37071638
  entropy T*S    EENTRO =        -0.00000000
  eigenvalues    EBANDS =    -10867.68617633
  atomic energy  EATOM  =    114020.06510763
  Solvation  Ediel_sol  =         0.00000000
  ---------------------------------------------------
  free energy    TOTEN  =      -327.39485823 eV

  energy without entropy =     -327.39485823  energy(sigma->0) =     -327.39485823


--------------------------------------------------------------------------------------------------------




--------------------------------------- Iteration      1(   5)  ---------------------------------------


    POTLOK:  cpu time    0.1231: real time    0.1242
    SETDIJ:  cpu time    0.0129: real time    0.0129
     EDDAV:  cpu time   15.4941: real time   15.6067
       DOS:  cpu time    0.0008: real time    0.0008
    CHARGE:  cpu time    0.5862: real time    0.5893
    MIXING:  cpu time    0.0013: real time    0.0013
    --------------------------------------------
      LOOP:  cpu time   16.2184: real time   16.3352

 eigenvalue-minimisations  :  2560
 total energy-change (2. order) :-0.2350969E-03  (-0.9659367E-04)
 number of electron     688.0000471 magnetization      -0.0000000
 augmentation part      282.2835062 magnetization      -0.0000000

 Broyden mixing:
  rms(total) = 0.79415E-02    rms(broyden)= 0.79412E-02
  rms(prec ) = 0.84234E-02
  weight for this iteration     100.00

 eigenvalues of (default mixing * dielectric matrix)
  average eigenvalue GAMMA=   1.0128
  1.9351  1.1699  0.3442  0.6019

 Free energy of the ion-electron system (eV)
  ---------------------------------------------------
  alpha Z        PSCENC =      2355.47729106
  Ewald energy   TEWEN  =    -62462.07112926
  -Hartree energ DENC   =    -42968.19670968
  -exchange      EXHF   =         0.00000000
  -V(xc)+E(xc)   XCENC  =      3287.07005274
  PAW double counting   =    112305.37547130  -115998.61971751
  entropy T*S    EENTRO =        -0.00000000
  eigenvalues    EBANDS =    -10866.49545959
  atomic energy  EATOM  =    114020.06510763
  Solvation  Ediel_sol  =         0.00000000
  ---------------------------------------------------
  free energy    TOTEN  =      -327.39509332 eV

  energy without entropy =     -327.39509332  energy(sigma->0) =     -327.39509332


--------------------------------------------------------------------------------------------------------




--------------------------------------- Iteration      1(   6)  ---------------------------------------


    POTLOK:  cpu time    0.1202: real time    0.1221
    SETDIJ:  cpu time    0.0127: real time    0.0128
     EDDAV:  cpu time   15.5538: real time   15.6677
       DOS:  cpu time    0.0008: real time    0.0009
    CHARGE:  cpu time    0.5884: real time    0.5915
    MIXING:  cpu time    0.0015: real time    0.0015
    --------------------------------------------
      LOOP:  cpu time   16.2775: real time   16.3963

 eigenvalue-minimisations  :  2560
 total energy-change (2. order) :-0.7074437E-04  (-0.2746832E-04)
 number of electron     688.0000471 magnetization       0.0000000
 augmentation part      282.2822609 magnetization       0.0000000

 Broyden mixing:
  rms(total) = 0.35270E-02    rms(broyden)= 0.35267E-02
  rms(prec ) = 0.36768E-02
  weight for this iteration     100.00

 eigenvalues of (default mixing * dielectric matrix)
  average eigenvalue GAMMA=   1.1458
  2.3382  1.6277  0.3447  0.8225  0.5958

 Free energy of the ion-electron system (eV)
  ---------------------------------------------------
  alpha Z        PSCENC =      2355.47729106
  Ewald energy   TEWEN  =    -62462.07112926
  -Hartree energ DENC   =    -42968.65957625
  -exchange      EXHF   =         0.00000000
  -V(xc)+E(xc)   XCENC  =      3287.07773163
  PAW double counting   =    112316.38281205  -116009.37436716
  entropy T*S    EENTRO =        -0.00000000
  eigenvalues    EBANDS =    -10866.29303376
  atomic energy  EATOM  =    114020.06510763
  Solvation  Ediel_sol  =         0.00000000
  ---------------------------------------------------
  free energy    TOTEN  =      -327.39516407 eV

  energy without entropy =     -327.39516407  energy(sigma->0) =     -327.39516407


--------------------------------------------------------------------------------------------------------




--------------------------------------- Iteration      1(   7)  ---------------------------------------


    POTLOK:  cpu time    0.1191: real time    0.1224
    SETDIJ:  cpu time    0.0128: real time    0.0128
     EDDAV:  cpu time   10.7454: real time   10.8303
       DOS:  cpu time    0.0008: real time    0.0008
    CHARGE:  cpu time    0.5846: real time    0.5878
    MIXING:  cpu time    0.0016: real time    0.0026
    --------------------------------------------
      LOOP:  cpu time   11.4643: real time   11.5567

 eigenvalue-minimisations  :  2048
 total energy-change (2. order) :-0.2210696E-04  (-0.4372992E-05)
 number of electron     688.0000471 magnetization      -0.0000000
 augmentation part      282.2813034 magnetization      -0.0000000

 Broyden mixing:
  rms(total) = 0.18442E-02    rms(broyden)= 0.18441E-02
  rms(prec ) = 0.20976E-02
  weight for this iteration     100.00

 eigenvalues of (default mixing * dielectric matrix)
  average eigenvalue GAMMA=   1.1319
  2.5652  1.5795  0.3445  0.9683  0.6217  0.7123

 Free energy of the ion-electron system (eV)
  ---------------------------------------------------
  alpha Z        PSCENC =      2355.47729106
  Ewald energy   TEWEN  =    -62462.07112926
  -Hartree energ DENC   =    -42968.89067103
  -exchange      EXHF   =         0.00000000
  -V(xc)+E(xc)   XCENC  =      3287.08673440
  PAW double counting   =    112320.42815595  -116013.28120491
  entropy T*S    EENTRO =        -0.00000000
  eigenvalues    EBANDS =    -10866.20947001
  atomic energy  EATOM  =    114020.06510763
  Solvation  Ediel_sol  =         0.00000000
  ---------------------------------------------------
  free energy    TOTEN  =      -327.39518617 eV

  energy without entropy =     -327.39518617  energy(sigma->0) =     -327.39518617


--------------------------------------------------------------------------------------------------------




--------------------------------------- Iteration      1(   8)  ---------------------------------------


    POTLOK:  cpu time    0.1215: real time    0.1227
    SETDIJ:  cpu time    0.0126: real time    0.0127
     EDDAV:  cpu time   15.4991: real time   15.6119
       DOS:  cpu time    0.0009: real time    0.0009
    CHARGE:  cpu time    0.5837: real time    0.5867
    MIXING:  cpu time    0.0015: real time    0.0015
    --------------------------------------------
      LOOP:  cpu time   16.2193: real time   16.3363

 eigenvalue-minimisations  :  2560
 total energy-change (2. order) :-0.2182220E-05  (-0.1519474E-05)
 number of electron     688.0000471 magnetization      -0.0000000
 augmentation part      282.2832259 magnetization      -0.0000000

 Broyden mixing:
  rms(total) = 0.80529E-03    rms(broyden)= 0.80518E-03
  rms(prec ) = 0.86237E-03
  weight for this iteration     100.00

 eigenvalues of (default mixing * dielectric matrix)
  average eigenvalue GAMMA=   1.1616
  2.6752  1.5159  1.5159  0.3445  0.8032  0.6383  0.6383

 Free energy of the ion-electron system (eV)
  ---------------------------------------------------
  alpha Z        PSCENC =      2355.47729106
  Ewald energy   TEWEN  =    -62462.07112926
  -Hartree energ DENC   =    -42968.92128987
  -exchange      EXHF   =         0.00000000
  -V(xc)+E(xc)   XCENC  =      3287.09116871
  PAW double counting   =    112319.58875587  -116012.42422530
  entropy T*S    EENTRO =        -0.00000000
  eigenvalues    EBANDS =    -10866.20086719
  atomic energy  EATOM  =    114020.06510763
  Solvation  Ediel_sol  =         0.00000000
  ---------------------------------------------------
  free energy    TOTEN  =      -327.39518836 eV

  energy without entropy =     -327.39518836  energy(sigma->0) =     -327.39518836


--------------------------------------------------------------------------------------------------------




--------------------------------------- Iteration      1(   9)  ---------------------------------------


    POTLOK:  cpu time    0.1174: real time    0.1195
    SETDIJ:  cpu time    0.0126: real time    0.0126
     EDDAV:  cpu time   10.7387: real time   10.8222
       DOS:  cpu time    0.0008: real time    0.0008
    CHARGE:  cpu time    0.5861: real time    0.5892
    MIXING:  cpu time    0.0016: real time    0.0016
    --------------------------------------------
      LOOP:  cpu time   11.4572: real time   11.5460

 eigenvalue-minimisations  :  2048
 total energy-change (2. order) :-0.1689099E-05  (-0.4576070E-06)
 number of electron     688.0000471 magnetization       0.0000000
 augmentation part      282.2821980 magnetization       0.0000000

 Broyden mixing:
  rms(total) = 0.67367E-03    rms(broyden)= 0.67363E-03
  rms(prec ) = 0.75195E-03
  weight for this iteration     100.00

 eigenvalues of (default mixing * dielectric matrix)
  average eigenvalue GAMMA=   1.1458
  2.7540  1.6558  1.6558  0.3445  0.8131  0.6932  0.6932  0.5571

 Free energy of the ion-electron system (eV)
  ---------------------------------------------------
  alpha Z        PSCENC =      2355.47729106
  Ewald energy   TEWEN  =    -62462.07112926
  -Hartree energ DENC   =    -42969.03628749
  -exchange      EXHF   =         0.00000000
  -V(xc)+E(xc)   XCENC  =      3287.09498210
  PAW double counting   =    112318.81279721  -116011.65456073
  entropy T*S    EENTRO =        -0.00000000
  eigenvalues    EBANDS =    -10866.08339056
  atomic energy  EATOM  =    114020.06510763
  Solvation  Ediel_sol  =         0.00000000
  ---------------------------------------------------
  free energy    TOTEN  =      -327.39519005 eV

  energy without entropy =     -327.39519005  energy(sigma->0) =     -327.39519005


--------------------------------------------------------------------------------------------------------




--------------------------------------- Iteration      1(  10)  ---------------------------------------


    POTLOK:  cpu time    0.1211: real time    0.1225
    SETDIJ:  cpu time    0.0128: real time    0.0128
     EDDAV:  cpu time   15.5109: real time   15.6242
       DOS:  cpu time    0.0009: real time    0.0009
    CHARGE:  cpu time    0.5845: real time    0.5874
    MIXING:  cpu time    0.0015: real time    0.0015
    --------------------------------------------
      LOOP:  cpu time   16.2316: real time   16.3493

 eigenvalue-minimisations  :  2560
 total energy-change (2. order) :-0.5099137E-06  (-0.1994924E-06)
 number of electron     688.0000471 magnetization      -0.0000000
 augmentation part      282.2823706 magnetization      -0.0000000

 Broyden mixing:
  rms(total) = 0.24296E-03    rms(broyden)= 0.24293E-03
  rms(prec ) = 0.25814E-03
  weight for this iteration     100.00

 eigenvalues of (default mixing * dielectric matrix)
  average eigenvalue GAMMA=   1.2148
  3.0233  2.3801  1.2367  1.2367  0.3445  0.8017  0.5748  0.6678  0.6678

 Free energy of the ion-electron system (eV)
  ---------------------------------------------------
  alpha Z        PSCENC =      2355.47729106
  Ewald energy   TEWEN  =    -62462.07112926
  -Hartree energ DENC   =    -42969.02189508
  -exchange      EXHF   =         0.00000000
  -V(xc)+E(xc)   XCENC  =      3287.09431460
  PAW double counting   =    112318.29136479  -116011.12420967
  entropy T*S    EENTRO =        -0.00000000
  eigenvalues    EBANDS =    -10866.10603462
  atomic energy  EATOM  =    114020.06510763
  Solvation  Ediel_sol  =         0.00000000
  ---------------------------------------------------
  free energy    TOTEN  =      -327.39519056 eV

  energy without entropy =     -327.39519056  energy(sigma->0) =     -327.39519056


--------------------------------------------------------------------------------------------------------




--------------------------------------- Iteration      1(  11)  ---------------------------------------


    POTLOK:  cpu time    0.1184: real time    0.1219
    SETDIJ:  cpu time    0.0126: real time    0.0127
     EDDAV:  cpu time   15.5183: real time   15.6309
       DOS:  cpu time    0.0009: real time    0.0009
    CHARGE:  cpu time    0.5844: real time    0.5875
    MIXING:  cpu time    0.0016: real time    0.0016
    --------------------------------------------
      LOOP:  cpu time   16.2362: real time   16.3555

 eigenvalue-minimisations  :  2560
 total energy-change (2. order) :-0.1482113E-06  (-0.5379412E-07)
 number of electron     688.0000471 magnetization      -0.0000000
 augmentation part      282.2824888 magnetization      -0.0000000

 Broyden mixing:
  rms(total) = 0.12997E-03    rms(broyden)= 0.12995E-03
  rms(prec ) = 0.14236E-03
  weight for this iteration     100.00

 eigenvalues of (default mixing * dielectric matrix)
  average eigenvalue GAMMA=   1.2371
  3.2711  2.4248  1.3912  1.3912  0.3445  0.9235  0.7627  0.5825  0.6399  0.6399

 Free energy of the ion-electron system (eV)
  ---------------------------------------------------
  alpha Z        PSCENC =      2355.47729106
  Ewald energy   TEWEN  =    -62462.07112926
  -Hartree energ DENC   =    -42969.02188302
  -exchange      EXHF   =         0.00000000
  -V(xc)+E(xc)   XCENC  =      3287.09402400
  PAW double counting   =    112318.06760689  -116010.89867423
  entropy T*S    EENTRO =        -0.00000000
  eigenvalues    EBANDS =    -10866.10753376
  atomic energy  EATOM  =    114020.06510763
  Solvation  Ediel_sol  =         0.00000000
  ---------------------------------------------------
  free energy    TOTEN  =      -327.39519070 eV

  energy without entropy =     -327.39519070  energy(sigma->0) =     -327.39519070


--------------------------------------------------------------------------------------------------------




--------------------------------------- Iteration      1(  12)  ---------------------------------------


    POTLOK:  cpu time    0.1196: real time    0.1205
    SETDIJ:  cpu time    0.0125: real time    0.0126
     EDDAV:  cpu time   15.4544: real time   15.5679
       DOS:  cpu time    0.0009: real time    0.0009
    CHARGE:  cpu time    0.5868: real time    0.5898
    MIXING:  cpu time    0.0018: real time    0.0023
    --------------------------------------------
      LOOP:  cpu time   16.1761: real time   16.2942

 eigenvalue-minimisations  :  2560
 total energy-change (2. order) : 0.6824848E-08  (-0.1703962E-07)
 number of electron     688.0000471 magnetization      -0.0000000
 augmentation part      282.2823658 magnetization      -0.0000000

 Broyden mixing:
  rms(total) = 0.61774E-04    rms(broyden)= 0.61761E-04
  rms(prec ) = 0.66041E-04
  weight for this iteration     100.00

 eigenvalues of (default mixing * dielectric matrix)
  average eigenvalue GAMMA=   1.2894
  3.5228  2.5018  1.9872  1.2789  1.2195  0.3445  0.8558  0.6545  0.6219  0.5982
  0.5982

 Free energy of the ion-electron system (eV)
  ---------------------------------------------------
  alpha Z        PSCENC =      2355.47729106
  Ewald energy   TEWEN  =    -62462.07112926
  -Hartree energ DENC   =    -42969.02941632
  -exchange      EXHF   =         0.00000000
  -V(xc)+E(xc)   XCENC  =      3287.09398575
  PAW double counting   =    112318.05845233  -116010.88916653
  entropy T*S    EENTRO =        -0.00000000
  eigenvalues    EBANDS =    -10866.10031535
  atomic energy  EATOM  =    114020.06510763
  Solvation  Ediel_sol  =         0.00000000
  ---------------------------------------------------
  free energy    TOTEN  =      -327.39519070 eV

  energy without entropy =     -327.39519070  energy(sigma->0) =     -327.39519070


--------------------------------------------------------------------------------------------------------




--------------------------------------- Iteration      1(  13)  ---------------------------------------


    POTLOK:  cpu time    0.1211: real time    0.1221
    SETDIJ:  cpu time    0.0126: real time    0.0127
     EDDAV:  cpu time   10.7611: real time   10.8458
       DOS:  cpu time    0.0009: real time    0.0009
    CHARGE:  cpu time    0.5844: real time    0.5876
    MIXING:  cpu time    0.0018: real time    0.0018
    --------------------------------------------
      LOOP:  cpu time   11.4819: real time   11.5708

 eigenvalue-minimisations  :  2048
 total energy-change (2. order) :-0.6762275E-07  (-0.4931444E-08)
 number of electron     688.0000471 magnetization       0.0000000
 augmentation part      282.2823859 magnetization       0.0000000

 Broyden mixing:
  rms(total) = 0.36395E-04    rms(broyden)= 0.36390E-04
  rms(prec ) = 0.41876E-04
  weight for this iteration     100.00

 eigenvalues of (default mixing * dielectric matrix)
  average eigenvalue GAMMA=   1.2908
  3.6617  2.5920  2.1890  1.2586  1.2586  0.3445  0.9337  0.7653  0.6307  0.6307
  0.5982  0.6267

 Free energy of the ion-electron system (eV)
  ---------------------------------------------------
  alpha Z        PSCENC =      2355.47729106
  Ewald energy   TEWEN  =    -62462.07112926
  -Hartree energ DENC   =    -42969.02857250
  -exchange      EXHF   =         0.00000000
  -V(xc)+E(xc)   XCENC  =      3287.09396505
  PAW double counting   =    112318.02814262  -116010.85912675
  entropy T*S    EENTRO =        -0.00000000
  eigenvalues    EBANDS =    -10866.10086861
  atomic energy  EATOM  =    114020.06510763
  Solvation  Ediel_sol  =         0.00000000
  ---------------------------------------------------
  free energy    TOTEN  =      -327.39519076 eV

  energy without entropy =     -327.39519076  energy(sigma->0) =     -327.39519076


--------------------------------------------------------------------------------------------------------




--------------------------------------- Iteration      1(  14)  ---------------------------------------


    POTLOK:  cpu time    0.1214: real time    0.1225
    SETDIJ:  cpu time    0.0126: real time    0.0127
     EDDAV:  cpu time    5.1559: real time    5.2007
       DOS:  cpu time    0.0009: real time    0.0009
    CHARGE:  cpu time    0.5845: real time    0.5875
    MIXING:  cpu time    0.0018: real time    0.0018
    --------------------------------------------
      LOOP:  cpu time    5.8771: real time    5.9260

 eigenvalue-minimisations  :  1024
 total energy-change (2. order) :-0.2203160E-07  (-0.6506556E-09)
 number of electron     688.0000471 magnetization       0.0000000
 augmentation part      282.2824106 magnetization       0.0000000

 Broyden mixing:
  rms(total) = 0.17752E-04    rms(broyden)= 0.17750E-04
  rms(prec ) = 0.18895E-04
  weight for this iteration     100.00

 eigenvalues of (default mixing * dielectric matrix)
  average eigenvalue GAMMA=   1.3116
  3.7391  2.6396  2.2269  1.4860  1.2776  1.2776  0.3445  0.8699  0.7143  0.6284
  0.6284  0.5868  0.6311

 Free energy of the ion-electron system (eV)
  ---------------------------------------------------
  alpha Z        PSCENC =      2355.47729106
  Ewald energy   TEWEN  =    -62462.07112926
  -Hartree energ DENC   =    -42969.02774572
  -exchange      EXHF   =         0.00000000
  -V(xc)+E(xc)   XCENC  =      3287.09396284
  PAW double counting   =    112318.01266424  -116010.84398684
  entropy T*S    EENTRO =        -0.00000000
  eigenvalues    EBANDS =    -10866.10135474
  atomic energy  EATOM  =    114020.06510763
  Solvation  Ediel_sol  =         0.00000000
  ---------------------------------------------------
  free energy    TOTEN  =      -327.39519079 eV

  energy without entropy =     -327.39519079  energy(sigma->0) =     -327.39519079


--------------------------------------------------------------------------------------------------------




--------------------------------------- Iteration      1(  15)  ---------------------------------------


    POTLOK:  cpu time    0.1194: real time    0.1203
    SETDIJ:  cpu time    0.0127: real time    0.0127
     EDDAV:  cpu time    5.1510: real time    5.1962
       DOS:  cpu time    0.0009: real time    0.0009
    --------------------------------------------
      LOOP:  cpu time    5.2840: real time    5.3300

 eigenvalue-minimisations  :  1024
 total energy-change (2. order) : 0.3841706E-08  (-0.4614239E-09)
 number of electron     688.0000471 magnetization       0.0000000
 augmentation part      282.2824106 magnetization       0.0000000

 Free energy of the ion-electron system (eV)
  ---------------------------------------------------
  alpha Z        PSCENC =      2355.47729106
  Ewald energy   TEWEN  =    -62462.07112926
  -Hartree energ DENC   =    -42969.02733311
  -exchange      EXHF   =         0.00000000
  -V(xc)+E(xc)   XCENC  =      3287.09394596
  PAW double counting   =    112318.02165103  -116010.85292473
  entropy T*S    EENTRO =        -0.00000000
  eigenvalues    EBANDS =    -10866.10179935
  atomic energy  EATOM  =    114020.06510763
  Solvation  Ediel_sol  =         0.00000000
  ---------------------------------------------------
  free energy    TOTEN  =      -327.39519078 eV

  energy without entropy =     -327.39519078  energy(sigma->0) =     -327.39519078


--------------------------------------------------------------------------------------------------------




 average (electrostatic) potential at core
  the test charge radii are     0.9698  0.8297  0.9500
  (the norm of the test charge is              1.0000)
       1 -86.5981       2 -86.5981       3 -86.5981       4 -86.5981       5 -86.5981
       6 -86.5981       7 -86.5981       8 -86.5981       9 -86.5981      10 -86.5981
      11 -86.5981      12 -86.5981      13 -86.5981      14 -86.5981      15 -86.5981
      16 -86.5981      17 -86.5981      18 -86.5981      19 -86.5981      20 -86.5981
      21 -86.5981      22 -86.5981      23 -86.5981      24 -86.5981      25 -86.5981
      26 -86.5981      27 -86.5981      28 -86.5981      29 -86.5981      30 -86.5981
      31 -86.5981      32 -86.5981      33 -80.6730      34 -80.6730      35 -80.6730
      36 -80.6730      37 -80.6730      38 -80.6730      39 -80.6730      40 -80.6730
      41 -80.6730      42 -80.6730      43 -80.6730      44 -80.6730      45 -80.6730
      46 -80.6730      47 -80.6730      48 -80.6730      49 -80.2233      50 -80.2233
      51 -80.2233      52 -80.2233      53 -80.2233      54 -80.2233      55 -80.2233
      56 -80.2233      57 -80.2233      58 -80.2233      59 -80.2233      60 -80.2233
      61 -80.2233      62 -80.2233      63 -80.2233      64 -80.2233
 
 
 
 E-fermi :   4.9698     XC(G=0): -10.4612     alpha+bet :-10.5433


 spin component 1

 k-point     1 :       0.0000    0.0000    0.0000
  band No.  band energies     occupation 
      1     -64.2917      1.00000
      2     -64.2917      1.00000
      3     -64.2916      1.00000
      4     -64.2916      1.00000
      5     -64.2916      1.00000
      6     -64.2916      1.00000
      7     -64.2916      1.00000
      8     -64.2916      1.00000
      9     -64.2575      1.00000
     10     -64.2575      1.00000
     11     -64.2575      1.00000
     12     -64.2575      1.00000
     13     -64.2575      1.00000
     14     -64.2575      1.00000
     15     -64.2575      1.00000
     16     -64.2575      1.00000
     17     -64.2497      1.00000
     18     -64.2497      1.00000
     19     -64.2497      1.00000
     20     -64.2497      1.00000
     21     -64.2497      1.00000
     22     -64.2497      1.00000
     23     -64.2497      1.00000
     24     -64.2497      1.00000
     25     -64.2460      1.00000
     26     -64.2460      1.00000
     27     -64.2460      1.00000
     28     -64.2460      1.00000
     29     -64.2460      1.00000
     30     -64.2460      1.00000
     31     -64.2460      1.00000
     32     -64.2460      1.00000
     33     -64.2338      1.00000
     34     -64.2338      1.00000
     35     -64.2338      1.00000
     36     -64.2338      1.00000
     37     -64.2338      1.00000
     38     -64.2338      1.00000
     39     -64.2338      1.00000
     40     -64.2338      1.00000
     41     -64.2254      1.00000
     42     -64.2254      1.00000
     43     -64.2254      1.00000
     44     -64.2254      1.00000
     45     -64.2254      1.00000
     46     -64.2254      1.00000
     47     -64.2254      1.00000
     48     -64.2254      1.00000
     49     -51.8730      1.00000
     50     -51.8730      1.00000
     51     -51.8730      1.00000
     52     -51.8730      1.00000
     53     -51.8730      1.00000
     54     -51.8730      1.00000
     55     -51.8730      1.00000
     56     -51.8730      1.00000
     57     -51.8536      1.00000
     58     -51.8535      1.00000
     59     -51.8535      1.00000
     60     -51.8535      1.00000
     61     -51.8535      1.00000
     62     -51.8535      1.00000
     63     -51.8535      1.00000
     64     -51.8535      1.00000
     65     -51.8432      1.00000
     66     -51.8432      1.00000
     67     -51.8432      1.00000
     68     -51.8432      1.00000
     69     -51.8432      1.00000
     70     -51.8432      1.00000
     71     -51.8432      1.00000
     72     -51.8432      1.00000
     73     -47.7232      1.00000
     74     -47.7232      1.00000
     75     -47.7232      1.00000
     76     -47.7232      1.00000
     77     -47.7232      1.00000
     78     -47.7232      1.00000
     79     -47.7232      1.00000
     80     -47.7232      1.00000
     81     -47.7231      1.00000
     82     -47.7231      1.00000
     83     -47.7231      1.00000
     84     -47.7231      1.00000
     85     -47.7231      1.00000
     86     -47.7231      1.00000
     87     -47.7231      1.00000
     88     -47.7231      1.00000
     89     -47.7199      1.00000
     90     -47.7199      1.00000
     91     -47.7199      1.00000
     92     -47.7199      1.00000
     93     -47.7199      1.00000
     94     -47.7199      1.00000
     95     -47.7199      1.00000
     96     -47.7199      1.00000
     97      -9.1007      1.00000
     98      -8.4899      1.00000
     99      -8.4883      1.00000
    100      -8.4883      1.00000
    101      -8.4882      1.00000
    102      -8.4882      1.00000
    103      -8.4669      1.00000
    104      -8.1355      1.00000
    105      -8.1345      1.00000
    106      -8.1259      1.00000
    107      -8.1259      1.00000
    108      -8.1259      1.00000
    109      -8.1259      1.00000
    110      -8.1157      1.00000
    111      -8.1131      1.00000
    112      -8.1054      1.00000
    113      -8.1054      1.00000
    114      -8.1054      1.00000
    115      -8.1054      1.00000
    116      -8.1037      1.00000
    117      -8.0841      1.00000
    118      -8.0731      1.00000
    119      -8.0550      1.00000
    120      -7.7602      1.00000
    121      -7.7541      1.00000
    122      -7.7537      1.00000
    123      -7.7473      1.00000
    124      -7.7431      1.00000
    125      -7.7431      1.00000
    126      -7.7430      1.00000
    127      -7.7430      1.00000
    128      -7.7398      1.00000
    129      -2.0705      1.00000
    130      -2.0486      1.00000
    131      -2.0486      1.00000
    132      -2.0457      1.00000
    133      -2.0457      1.00000
    134      -2.0255      1.00000
    135      -1.9794      1.00000
    136      -1.9618      1.00000
    137      -1.9453      1.00000
    138      -1.9032      1.00000
    139      -1.8937      1.00000
    140      -1.8848      1.00000
    141      -1.8848      1.00000
    142      -1.8827      1.00000
    143      -1.8827      1.00000
    144      -1.8735      1.00000
    145      -1.8684      1.00000
    146      -1.8453      1.00000
    147      -1.8453      1.00000
    148      -1.8432      1.00000
    149      -1.8432      1.00000
    150      -1.8169      1.00000
    151      -1.7966      1.00000
    152      -1.7966      1.00000
    153      -1.7942      1.00000
    154      -1.7936      1.00000
    155      -1.7923      1.00000
    156      -1.7923      1.00000
    157      -1.7871      1.00000
    158      -1.7714      1.00000
    159      -1.7618      1.00000
    160      -1.7554      1.00000
    161      -1.7554      1.00000
    162      -1.7547      1.00000
    163      -1.7547      1.00000
    164      -1.7473      1.00000
    165      -1.7450      1.00000
    166      -1.7444      1.00000
    167      -1.7112      1.00000
    168      -1.7101      1.00000
    169      -0.9696      1.00000
    170      -0.9370      1.00000
    171      -0.8614      1.00000
    172      -0.8348      1.00000
    173      -0.7441      1.00000
    174      -0.4939      1.00000
    175      -0.2354      1.00000
    176      -0.2354      1.00000
    177      -0.2340      1.00000
    178      -0.2340      1.00000
    179      -0.1877      1.00000
    180      -0.1872      1.00000
    181      -0.1170      1.00000
    182      -0.0225      1.00000
    183      -0.0225      1.00000
    184      -0.0202      1.00000
    185      -0.0202      1.00000
    186       0.0491      1.00000
    187       0.0498      1.00000
    188       0.1106      1.00000
    189       0.1106      1.00000
    190       0.1108      1.00000
    191       0.1108      1.00000
    192       0.1191      1.00000
    193       0.2099      1.00000
    194       0.2712      1.00000
    195       0.2712      1.00000
    196       0.2740      1.00000
    197       0.2740      1.00000
    198       0.3062      1.00000
    199       0.3308      1.00000
    200       0.6936      1.00000
    201       0.7362      1.00000
    202       0.7429      1.00000
    203       0.7707      1.00000
    204       0.8128      1.00000
    205       0.8128      1.00000
    206       0.8157      1.00000
    207       0.8157      1.00000
    208       0.8802      1.00000
    209       0.8802      1.00000
    210       0.8840      1.00000
    211       0.8840      1.00000
    212       1.0145      1.00000
    213       1.0145      1.00000
    214       1.0154      1.00000
    215       1.0154      1.00000
    216       1.1179      1.00000
[...]
   -.110E+00 0.421E+02 0.429E+01   0.110E+00 -.430E+02 -.435E+01   -.284E-03 0.930E+00 0.547E-01   0.608E-06 -.978E-05 0.120E-05
   -.421E+02 0.110E+00 0.429E+01   0.430E+02 -.110E+00 -.435E+01   -.930E+00 0.284E-03 0.547E-01   0.978E-05 -.608E-06 0.120E-05
   -.421E+02 0.110E+00 0.429E+01   0.430E+02 -.110E+00 -.435E+01   -.930E+00 0.284E-03 0.547E-01   0.978E-05 -.608E-06 0.120E-05
   -.421E+02 0.110E+00 0.429E+01   0.430E+02 -.110E+00 -.435E+01   -.930E+00 0.284E-03 0.547E-01   0.978E-05 -.608E-06 0.120E-05
   -.421E+02 0.110E+00 0.429E+01   0.430E+02 -.110E+00 -.435E+01   -.930E+00 0.284E-03 0.547E-01   0.978E-05 -.608E-06 0.120E-05
   0.421E+02 -.110E+00 0.429E+01   -.430E+02 0.110E+00 -.435E+01   0.930E+00 -.284E-03 0.547E-01   -.978E-05 0.608E-06 0.120E-05
   0.421E+02 -.110E+00 0.429E+01   -.430E+02 0.110E+00 -.435E+01   0.930E+00 -.284E-03 0.547E-01   -.978E-05 0.608E-06 0.120E-05
   0.421E+02 -.110E+00 0.429E+01   -.430E+02 0.110E+00 -.435E+01   0.930E+00 -.284E-03 0.547E-01   -.978E-05 0.608E-06 0.120E-05
   0.421E+02 -.110E+00 0.429E+01   -.430E+02 0.110E+00 -.435E+01   0.930E+00 -.284E-03 0.547E-01   -.978E-05 0.608E-06 0.120E-05
   0.110E+00 -.421E+02 0.429E+01   -.110E+00 0.430E+02 -.435E+01   0.284E-03 -.930E+00 0.547E-01   -.608E-06 0.978E-05 0.120E-05
   0.110E+00 -.421E+02 0.429E+01   -.110E+00 0.430E+02 -.435E+01   0.284E-03 -.930E+00 0.547E-01   -.608E-06 0.978E-05 0.120E-05
   0.110E+00 -.421E+02 0.429E+01   -.110E+00 0.430E+02 -.435E+01   0.284E-03 -.930E+00 0.547E-01   -.608E-06 0.978E-05 0.120E-05
   0.110E+00 -.421E+02 0.429E+01   -.110E+00 0.430E+02 -.435E+01   0.284E-03 -.930E+00 0.547E-01   -.608E-06 0.978E-05 0.120E-05
   -.110E+00 0.421E+02 0.429E+01   0.110E+00 -.430E+02 -.435E+01   -.284E-03 0.930E+00 0.547E-01   0.608E-06 -.978E-05 0.120E-05
   -.110E+00 0.421E+02 0.429E+01   0.110E+00 -.430E+02 -.435E+01   -.284E-03 0.930E+00 0.547E-01   0.608E-06 -.978E-05 0.120E-05
   -.110E+00 0.421E+02 0.429E+01   0.110E+00 -.430E+02 -.435E+01   -.284E-03 0.930E+00 0.547E-01   0.608E-06 -.978E-05 0.120E-05
   -.110E+00 0.421E+02 0.429E+01   0.110E+00 -.430E+02 -.435E+01   -.284E-03 0.930E+00 0.547E-01   0.608E-06 -.978E-05 0.120E-05
   -.120E-06 0.229E-07 -.507E+01   -.110E-12 -.711E-14 0.485E+01   0.296E-25 0.000E+00 0.220E+00   0.167E-12 0.391E-12 -.650E-07
   -.120E-06 0.229E-07 -.507E+01   -.106E-12 -.114E-12 0.485E+01   -.202E-27 -.129E-25 0.220E+00   -.384E-12 0.495E-12 -.650E-07
   -.120E-06 0.229E-07 -.507E+01   -.810E-13 -.213E-13 0.485E+01   -.363E-25 0.168E-25 0.220E+00   0.905E-13 -.412E-12 -.650E-07
   -.120E-06 0.229E-07 -.507E+01   -.492E-13 -.284E-13 0.485E+01   -.129E-24 -.505E-27 0.220E+00   -.354E-12 -.396E-12 -.650E-07
   0.229E-07 -.120E-06 -.507E+01   -.142E-12 -.568E-13 0.485E+01   0.199E-25 0.517E-25 0.220E+00   -.848E-13 0.121E-12 -.650E-07
   0.229E-07 -.120E-06 -.507E+01   -.142E-12 -.568E-13 0.485E+01   -.222E-25 0.646E-25 0.220E+00   -.405E-12 0.281E-12 -.650E-07
   0.229E-07 -.120E-06 -.507E+01   -.142E-12 0.284E-13 0.485E+01   0.352E-25 -.197E-25 0.220E+00   -.527E-13 -.137E-12 -.650E-07
   0.229E-07 -.120E-06 -.507E+01   -.114E-12 0.284E-13 0.485E+01   -.798E-26 0.000E+00 0.220E+00   -.419E-12 -.212E-12 -.650E-07
   -.120E-06 0.229E-07 -.507E+01   -.107E-12 -.715E-13 0.485E+01   0.647E-25 -.194E-25 0.220E+00   -.322E-12 -.620E-13 -.650E-07
   -.120E-06 0.229E-07 -.507E+01   -.924E-13 -.136E-12 0.485E+01   -.597E-25 0.646E-26 0.220E+00   -.260E-13 0.786E-14 -.650E-07
   -.120E-06 0.229E-07 -.507E+01   -.171E-12 -.108E-12 0.485E+01   0.151E-25 0.163E-25 0.220E+00   -.268E-12 0.342E-13 -.650E-07
   -.120E-06 0.230E-07 -.507E+01   -.853E-13 -.101E-12 0.485E+01   -.762E-25 0.129E-25 0.220E+00   -.146E-12 0.207E-12 -.650E-07
   0.229E-07 -.120E-06 -.507E+01   -.179E-12 -.850E-13 0.485E+01   -.157E-25 -.258E-25 0.220E+00   0.860E-13 -.294E-12 -.650E-07
   0.229E-07 -.120E-06 -.507E+01   -.176E-12 -.852E-13 0.485E+01   -.113E-25 -.711E-25 0.220E+00   -.339E-12 -.210E-12 -.650E-07
   0.229E-07 -.120E-06 -.507E+01   -.207E-12 -.508E-13 0.485E+01   0.115E-25 -.646E-26 0.220E+00   0.437E-12 0.255E-12 -.650E-07
   0.229E-07 -.120E-06 -.507E+01   -.120E-12 -.508E-13 0.485E+01   -.569E-26 0.271E-25 0.220E+00   -.609E-12 0.251E-12 -.650E-07
   0.223E-08 -.378E-07 -.408E+01   -.275E-13 -.142E-12 0.384E+01   -.139E-24 -.258E-25 0.246E+00   0.509E-12 0.311E-12 -.966E-05
   0.224E-08 -.378E-07 -.408E+01   -.109E-13 -.568E-13 0.384E+01   0.419E-25 0.129E-25 0.246E+00   -.886E-12 0.270E-12 -.966E-05
   0.223E-08 -.378E-07 -.408E+01   -.666E-13 -.117E-12 0.384E+01   -.182E-25 0.889E-26 0.246E+00   0.546E-12 -.311E-12 -.966E-05
   0.224E-08 -.378E-07 -.408E+01   -.733E-14 -.568E-13 0.384E+01   0.368E-25 -.404E-26 0.246E+00   -.862E-12 -.273E-12 -.966E-05
   -.378E-07 0.223E-08 -.408E+01   0.149E-12 0.533E-13 0.384E+01   0.207E-25 -.129E-25 0.246E+00   -.590E-12 0.356E-12 -.966E-05
   -.378E-07 0.223E-08 -.408E+01   0.192E-12 -.107E-13 0.384E+01   -.395E-25 -.452E-25 0.246E+00   0.158E-12 0.609E-12 -.966E-05
   -.378E-07 0.223E-08 -.408E+01   0.139E-12 0.320E-13 0.384E+01   -.289E-25 -.388E-25 0.246E+00   -.523E-12 -.393E-12 -.966E-05
   -.378E-07 0.222E-08 -.408E+01   0.185E-12 -.249E-13 0.384E+01   0.858E-25 -.646E-26 0.246E+00   0.144E-12 -.555E-12 -.966E-05
   0.223E-08 -.378E-07 -.408E+01   -.462E-13 -.144E-12 0.384E+01   0.571E-25 -.775E-25 0.246E+00   -.329E-12 -.205E-12 -.966E-05
   0.224E-08 -.379E-07 -.408E+01   -.320E-13 -.112E-12 0.384E+01   -.212E-26 0.646E-26 0.246E+00   -.130E-12 -.148E-12 -.966E-05
   0.223E-08 -.378E-07 -.408E+01   -.284E-13 -.940E-13 0.384E+01   -.298E-25 0.507E-25 0.246E+00   -.310E-12 0.146E-12 -.966E-05
   0.224E-08 -.378E-07 -.408E+01   -.426E-13 -.372E-13 0.384E+01   -.708E-25 0.323E-25 0.246E+00   -.805E-13 0.187E-12 -.966E-05
   -.378E-07 0.223E-08 -.408E+01   0.142E-12 0.620E-13 0.384E+01   0.687E-26 0.395E-25 0.246E+00   0.417E-12 -.143E-12 -.966E-05
   -.378E-07 0.227E-08 -.408E+01   0.183E-12 0.518E-14 0.384E+01   0.788E-26 0.129E-25 0.246E+00   -.672E-12 -.832E-13 -.966E-05
   -.378E-07 0.224E-08 -.408E+01   0.148E-12 0.948E-13 0.384E+01   0.109E-25 0.107E-25 0.246E+00   0.480E-12 -.654E-14 -.966E-05
   -.378E-07 0.224E-08 -.408E+01   0.161E-12 -.189E-13 0.384E+01   -.373E-25 -.531E-25 0.246E+00   -.789E-12 0.628E-13 -.966E-05
 -----------------------------------------------------------------------------------------------
   -.513E-06 -.513E-06 -.921E+01   0.350E-12 0.321E-12 -.256E-12   0.111E-15 -.888E-15 0.920E+01   -.287E-11 -.691E-12 -.117E-03
 
 
 POSITION                                       TOTAL-FORCE (eV/Angst)
 -----------------------------------------------------------------------------------
      1.33545      1.32420      1.29376         0.000857     -0.000837     -0.000844
      6.59181      1.36086      1.29376         0.000857     -0.000837     -0.000844
      1.37211      6.58057      1.29376         0.000857     -0.000837     -0.000844
      6.62847      6.61723      1.29376         0.000857     -0.000837     -0.000844
      3.95758      3.96882      1.29376        -0.000857      0.000837     -0.000844
      9.21395      4.00548      1.29376        -0.000857      0.000837     -0.000844
      3.99424      9.22519      1.29376        -0.000857      0.000837     -0.000844
      9.25061      9.26185      1.29376        -0.000857      0.000837     -0.000844
      1.34064      3.93925      9.10510         0.000837     -0.000857     -0.000844
      6.59701      3.97591      9.10510         0.000837     -0.000857     -0.000844
      1.37730      9.19562      9.10510         0.000837     -0.000857     -0.000844
      6.63367      9.23228      9.10510         0.000837     -0.000857     -0.000844
      3.95239      1.35378      9.10510        -0.000837      0.000857     -0.000844
      9.20875      1.39044      9.10510        -0.000837      0.000857     -0.000844
      3.98905      6.61014      9.10510        -0.000837      0.000857     -0.000844
      9.24541      6.64681      9.10510        -0.000837      0.000857     -0.000844
      1.31107      1.32231      6.50132        -0.000857      0.000837     -0.000844
      6.56743      1.35897      6.50132        -0.000857      0.000837     -0.000844
      1.34773      6.57868      6.50132        -0.000857      0.000837     -0.000844
      6.60409      6.61534      6.50132        -0.000857      0.000837     -0.000844
      3.98196      3.97072      6.50132         0.000857     -0.000837     -0.000844
      9.23833      4.00738      6.50132         0.000857     -0.000837     -0.000844
      4.01862      9.22708      6.50132         0.000857     -0.000837     -0.000844
      9.27499      9.26375      6.50132         0.000857     -0.000837     -0.000844
      3.95049      1.32940      3.89754         0.000837     -0.000857     -0.000844
      9.20686      1.36606      3.89754         0.000837     -0.000857     -0.000844
      3.98715      6.58576      3.89754         0.000837     -0.000857     -0.000844
      9.24352      6.62242      3.89754         0.000837     -0.000857     -0.000844
      1.34253      3.96363      3.89754        -0.000837      0.000857     -0.000844
      6.59890      4.00029      3.89754        -0.000837      0.000857     -0.000844
      1.37920      9.22000      3.89754        -0.000837      0.000857     -0.000844
      6.63556      9.25666      3.89754        -0.000837      0.000857     -0.000844
      0.00000      0.00000      5.21460        -0.000000     -0.000000     -0.002833
      5.25637      0.03666      5.21460        -0.000000      0.000000     -0.002833
      0.03666      5.25637      5.21460        -0.000000     -0.000000     -0.002833
      5.29303      5.29303      5.21460        -0.000000     -0.000000     -0.002833
      2.62818      0.01833      2.61082        -0.000000      0.000000     -0.002833
      7.88455      0.05499      2.61082        -0.000000     -0.000000     -0.002833
      2.66484      5.27470      2.61082        -0.000000     -0.000000     -0.002833
      7.92121      5.31136      2.61082        -0.000000      0.000000     -0.002833
      2.64651      2.64651      0.00704        -0.000000     -0.000000     -0.002833
      7.90288      2.68317      0.00704        -0.000000      0.000000     -0.002833
      2.68317      7.90288      0.00704        -0.000000      0.000000     -0.002833
      7.93954      7.93954      0.00704        -0.000000      0.000000     -0.002833
      0.01833      2.62818      7.81839        -0.000000     -0.000000     -0.002833
      5.27470      2.66484      7.81839        -0.000000      0.000000     -0.002833
      0.05499      7.88455      7.81839        -0.000000      0.000000     -0.002833
      5.31136      7.92121      7.81839        -0.000000     -0.000000     -0.002833
      0.00000      0.00000      0.00924        -0.000000     -0.000000      0.004522
      5.25637      0.03666      0.00924        -0.000000      0.000000      0.004522
      0.03666      5.25637      0.00924        -0.000000     -0.000000      0.004522
      5.29303      5.29303      0.00924        -0.000000      0.000000      0.004522
      2.62818      0.01833      7.82058        -0.000000      0.000000      0.004522
      7.88455      0.05499      7.82058        -0.000000      0.000000      0.004522
      2.66484      5.27470      7.82058        -0.000000      0.000000      0.004522
      7.92121      5.31136      7.82058        -0.000000      0.000000      0.004522
      2.64651      2.64651      5.21680        -0.000000     -0.000000      0.004522
      7.90288      2.68317      5.21680        -0.000000     -0.000000      0.004522
      2.68317      7.90288      5.21680        -0.000000     -0.000000      0.004522
      7.93954      7.93954      5.21680        -0.000000      0.000000      0.004522
      0.01833      2.62818      2.61302        -0.000000      0.000000      0.004522
      5.27470      2.66484      2.61302        -0.000000      0.000000      0.004522
      0.05499      7.88455      2.61302        -0.000000      0.000000      0.004522
      5.31136      7.92121      2.61302        -0.000000      0.000000      0.004522
 -----------------------------------------------------------------------------------
    total drift:                               -0.000001     -0.000001     -0.008627


--------------------------------------------------------------------------------------------------------



  FREE ENERGIE OF THE ION-ELECTRON SYSTEM (eV)
  ---------------------------------------------------
  free  energy   TOTEN  =      -327.39519078 eV

  energy  without entropy=     -327.39519078  energy(sigma->0) =     -327.39519078
 


--------------------------------------------------------------------------------------------------------


    POTLOK:  cpu time    0.1302: real time    0.1309


--------------------------------------------------------------------------------------------------------


 writing wavefunctions
     LOOP+:  cpu time  230.1086: real time  331.1630
    4ORBIT:  cpu time    0.0000: real time    0.0000
 


 total charge     
 
# of ion       s       p       d       tot
------------------------------------------
    1        1.312   2.415   0.000   3.727
    2        1.312   2.415   0.000   3.727
    3        1.312   2.415   0.000   3.727
    4        1.312   2.415   0.000   3.727
    5        1.312   2.415   0.000   3.727
    6        1.312   2.415   0.000   3.727
    7        1.312   2.415   0.000   3.727
    8        1.312   2.415   0.000   3.727
    9        1.312   2.415   0.000   3.727
   10        1.312   2.415   0.000   3.727
   11        1.312   2.415   0.000   3.727
   12        1.312   2.415   0.000   3.727
   13        1.312   2.415   0.000   3.727
   14        1.312   2.415   0.000   3.727
   15        1.312   2.415   0.000   3.727
   16        1.312   2.415   0.000   3.727
   17        1.312   2.415   0.000   3.727
   18        1.312   2.415   0.000   3.727
   19        1.312   2.415   0.000   3.727
   20        1.312   2.415   0.000   3.727
   21        1.312   2.415   0.000   3.727
   22        1.312   2.415   0.000   3.727
   23        1.312   2.415   0.000   3.727
   24        1.312   2.415   0.000   3.727
   25        1.312   2.415   0.000   3.727
   26        1.312   2.415   0.000   3.727
   27        1.312   2.415   0.000   3.727
   28        1.312   2.415   0.000   3.727
   29        1.312   2.415   0.000   3.727
   30        1.312   2.415   0.000   3.727
   31        1.312   2.415   0.000   3.727
   32        1.312   2.415   0.000   3.727
   33        0.257   6.203   8.919  15.379
   34        0.257   6.203   8.919  15.379
   35        0.257   6.203   8.919  15.379
   36        0.257   6.203   8.919  15.379
   37        0.257   6.203   8.919  15.379
   38        0.257   6.203   8.919  15.379
   39        0.257   6.203   8.919  15.379
   40        0.257   6.203   8.919  15.379
   41        0.257   6.203   8.919  15.379
   42        0.257   6.203   8.919  15.379
   43        0.257   6.203   8.919  15.379
   44        0.257   6.203   8.919  15.379
   45        0.257   6.203   8.919  15.379
   46        0.257   6.203   8.919  15.379
   47        0.257   6.203   8.919  15.379
   48        0.257   6.203   8.919  15.379
   49        0.348   6.349   5.823  12.521
   50        0.348   6.349   5.823  12.521
   51        0.348   6.349   5.823  12.521
   52        0.348   6.349   5.823  12.521
   53        0.348   6.349   5.823  12.521
   54        0.348   6.349   5.823  12.521
   55        0.348   6.349   5.823  12.521
   56        0.348   6.349   5.823  12.521
   57        0.348   6.349   5.823  12.521
   58        0.348   6.349   5.823  12.521
   59        0.348   6.349   5.823  12.521
   60        0.348   6.349   5.823  12.521
   61        0.348   6.349   5.823  12.521
   62        0.348   6.349   5.823  12.521
   63        0.348   6.349   5.823  12.521
   64        0.348   6.349   5.823  12.521
--------------------------------------------------
tot         51.677 278.118 235.879 565.674
 


 magnetization (x)
 
# of ion       s       p       d       tot
------------------------------------------
    1       -0.000  -0.004   0.000  -0.004
    2       -0.000  -0.004   0.000  -0.004
    3       -0.000  -0.004   0.000  -0.004
    4       -0.000  -0.004   0.000  -0.004
    5       -0.000  -0.004   0.000  -0.004
    6       -0.000  -0.004   0.000  -0.004
    7       -0.000  -0.004   0.000  -0.004
    8       -0.000  -0.004   0.000  -0.004
    9        0.000   0.004   0.000   0.004
   10        0.000   0.004   0.000   0.004
   11        0.000   0.004   0.000   0.004
   12        0.000   0.004   0.000   0.004
   13        0.000   0.004   0.000   0.004
   14        0.000   0.004   0.000   0.004
   15        0.000   0.004   0.000   0.004
   16        0.000   0.004   0.000   0.004
   17       -0.000  -0.004   0.000  -0.004
   18       -0.000  -0.004   0.000  -0.004
   19       -0.000  -0.004   0.000  -0.004
   20       -0.000  -0.004   0.000  -0.004
   21       -0.000  -0.004   0.000  -0.004
   22       -0.000  -0.004   0.000  -0.004
   23       -0.000  -0.004   0.000  -0.004
   24       -0.000  -0.004   0.000  -0.004
   25        0.000   0.004   0.000   0.004
   26        0.000   0.004   0.000   0.004
   27        0.000   0.004   0.000   0.004
   28        0.000   0.004   0.000   0.004
   29        0.000   0.004   0.000   0.004
   30        0.000   0.004   0.000   0.004
   31        0.000   0.004   0.000   0.004
   32        0.000   0.004   0.000   0.004
   33        0.001  -0.000  -0.001  -0.000
   34        0.001  -0.000  -0.001  -0.000
   35        0.001  -0.000  -0.001  -0.000
   36        0.001  -0.000  -0.001  -0.000
   37       -0.001   0.000   0.001   0.000
   38       -0.001   0.000   0.001   0.000
   39       -0.001   0.000   0.001   0.000
   40       -0.001   0.000   0.001   0.000
   41        0.001  -0.000  -0.001  -0.000
   42        0.001  -0.000  -0.001  -0.000
   43        0.001  -0.000  -0.001  -0.000
   44        0.001  -0.000  -0.001  -0.000
   45       -0.001   0.000   0.001   0.000
   46       -0.001   0.000   0.001   0.000
   47       -0.001   0.000   0.001   0.000
   48       -0.001   0.000   0.001   0.000
   49        0.020   0.056   3.672   3.748
   50        0.020   0.056   3.672   3.748
   51        0.020   0.056   3.672   3.748
   52        0.020   0.056   3.672   3.748
   53       -0.020  -0.056  -3.672  -3.748
   54       -0.020  -0.056  -3.672  -3.748
   55       -0.020  -0.056  -3.672  -3.748
   56       -0.020  -0.056  -3.672  -3.748
   57        0.020   0.056   3.672   3.748
   58        0.020   0.056   3.672   3.748
   59        0.020   0.056   3.672   3.748
   60        0.020   0.056   3.672   3.748
   61       -0.020  -0.056  -3.672  -3.748
   62       -0.020  -0.056  -3.672  -3.748
   63       -0.020  -0.056  -3.672  -3.748
   64       -0.020  -0.056  -3.672  -3.748
--------------------------------------------------
tot          0.000  -0.000   0.000   0.000
 

 total amount of memory used by VASP MPI-rank0   180294. kBytes
=======================================================================

   base      :      30000. kBytes
   nonl-proj :      70819. kBytes
   fftplans  :       4588. kBytes
   grid      :      69719. kBytes
   one-center:       1990. kBytes
   wavefun   :       3178. kBytes
 
  
  
 General timing and accounting informations for this job:
 ========================================================
  
                  Total CPU time used (sec):      258.919
                            User time (sec):      251.133
                          System time (sec):        7.786
                         Elapsed time (sec):      362.845
  
                   Maximum memory used (kb):      510440.
                   Average memory used (kb):           0.
  
                          Minor page faults:       135475
                          Major page faults:         5389
                 Voluntary context switches:         7704
