       N       E                     dE             d eps       ncg     rms          rms(c)
DAV:   1    -0.327399889689E+03   -0.32740E+03   -0.10389E-09  1024   0.133E-04    0.117E+00
DAV:   2    -0.327407302664E+03   -0.74130E-02   -0.18014E-01  2560   0.106E+00    0.144E+00
DAV:   3    -0.327399034155E+03    0.82685E-02   -0.10977E-01  2560   0.941E-01    0.553E-01
DAV:   4    -0.327398929604E+03    0.10455E-03   -0.38007E-03  2560   0.151E-01    0.223E-01
DAV:   5    -0.327399162732E+03   -0.23313E-03   -0.96153E-04  2560   0.524E-02    0.793E-02
DAV:   6    -0.327399232517E+03   -0.69784E-04   -0.27208E-04  2560   0.286E-02    0.352E-02
DAV:   7    -0.327399254250E+03   -0.21733E-04   -0.42633E-05  2048   0.983E-03    0.184E-02
DAV:   8    -0.327399256332E+03   -0.20823E-05   -0.15117E-05  2560   0.648E-03    0.797E-03
DAV:   9    -0.327399257948E+03   -0.16156E-05   -0.44183E-06  2048   0.455E-03    0.666E-03
DAV:  10    -0.327399258421E+03   -0.47316E-06   -0.18724E-06  2560   0.252E-03    0.239E-03
DAV:  11    -0.327399258554E+03   -0.13357E-06   -0.48825E-07  2560   0.733E-04    0.127E-03
DAV:  12    -0.327399258543E+03    0.11409E-07   -0.15042E-07  2560   0.542E-04    0.589E-04
DAV:  13    -0.327399258610E+03   -0.66822E-07   -0.42565E-08  2048   0.246E-04    0.344E-04
DAV:  14    -0.327399258628E+03   -0.18394E-07   -0.54329E-09  1024   0.115E-04    0.167E-04
DAV:  15    -0.327399258625E+03    0.27794E-08   -0.36642E-09  1024   0.677E-05
   1 F= -.32739926E+03 E0= -.32739926E+03  d E =-.134471E-10  mag=     0.0000
