 vasp.5.4.4.18Apr17-6-g9f103f2a35 (build Oct 30 2023 17:30:16) complex          
  
 executed on             LinuxIFC date 2024.06.28  18:24:35
 running on  256 total cores
 distrk:  each k-point on  256 cores,    1 groups
 distr:  one band on NCORES_PER_BAND=   1 cores,  256 groups


--------------------------------------------------------------------------------------------------------


 INCAR:
 POTCAR:    PAW_PBE S 06Sep2000                   
 POTCAR:     PAW_PBE Cu_pv 06Sep2000              
 POTCAR:     PAW_PBE Fe_pv 02Aug2007              

 ----------------------------------------------------------------------------- 
|                                                                             |
|           W    W    AA    RRRRR   N    N  II  N    N   GGGG   !!!           |
|           W    W   A  A   R    R  NN   N  II  NN   N  G    G  !!!           |
|           W    W  A    A  R    R  N N  N  II  N N  N  G       !!!           |
|           W WW W  AAAAAA  RRRRR   N  N N  II  N  N N  G  GGG   !            |
|           WW  WW  A    A  R   R   N   NN  II  N   NN  G    G                |
|           W    W  A    A  R    R  N    N  II  N    N   GGGG   !!!           |
|                                                                             |
|      For optimal performance we recommend to set                            |
|        NCORE= 4 - approx SQRT( number of cores)                             |
|      NCORE specifies how many cores store one orbital (NPAR=cpu/NCORE).     |
|      This setting can  greatly improve the performance of VASP for DFT.     |
|      The default,   NCORE=1            might be grossly inefficient         |
|      on modern multi-core architectures or massively parallel machines.     |
|      Do your own testing !!!!                                               |
|      Unfortunately you need to use the default for GW and RPA calculations. |
|      (for HF NCORE is supported but not extensively tested yet)             |
|                                                                             |
 ----------------------------------------------------------------------------- 

 POTCAR:    PAW_PBE S 06Sep2000                   
   SHA256 =  0fc7481fb0695f01bdc6462160264c5c84044ae9ec85a907d398b887a2bc3132 S/
   COPYR  = (c) Copyright 06Sep2000 Georg Kresse                                
   COPYR  = This file is part of the software VASP. Any use, copying, and all ot
   COPYR  = If you do not have a valid VASP license, you may not use, copy or di
   VRHFIN =S : s2p4                                                             
   LEXCH  = PE                                                                  
   EATOM  =   276.8230 eV,   20.3459 Ry                                         
                                                                                
   TITEL  = PAW_PBE S 06Sep2000                                                 
   LULTRA =        F    use ultrasoft PP ?                                      
   IUNSCR =        1    unscreen: 0-lin 1-nonlin 2-no                           
   RPACOR =    1.500    partial core radius                                     
   POMASS =   32.066; ZVAL   =    6.000    mass and valenz                      
   RCORE  =    1.900    outmost cutoff radius                                   
   RWIGS  =    2.200; RWIGS  =    1.164    wigner-seitz radius (au A)           
   ENMAX  =  258.689; ENMIN  =  194.016 eV                                      
   ICORE  =        2    local potential                                         
   LCOR   =        T    correct aug charges                                     
   LPAW   =        T    paw PP                                                  
   EAUG   =  335.092                                                            
   DEXC   =    0.000                                                            
   RMAX   =    1.942    core radius for proj-oper                               
   RAUG   =    1.300    factor for augmentation sphere                          
   RDEP   =    1.954    radius for radial grids                                 
   RDEPT  =    1.744    core radius for aug-charge                              
                                                                                
   Atomic configuration                                                         
    6 entries                                                                   
     n  l   j            E        occ.                                          
     1  0  0.50     -2405.8406   2.0000                                         
     2  0  0.50      -211.7007   2.0000                                         
     2  1  1.50      -156.4958   6.0000                                         
     3  0  0.50       -17.2562   2.0000                                         
     3  1  0.50        -7.0085   4.0000                                         
     3  2  1.50        -6.8029   0.0000                                         
   Description                                                                  
     l       E           TYP  RCUT    TYP  RCUT                                 
     0    -17.2561641     23  1.900                                             
     0    -15.8743224     23  1.900                                             
     1     -7.0085400     23  1.900                                             
     1     -2.7779785     23  1.900                                             
     2     -6.8029130     23  1.900                                             
  local pseudopotential read in
  partial core-charges read in
  partial kinetic energy density read in
  atomic valenz-charges read in
  non local Contribution for L=           0  read in
    real space projection operators read in
  non local Contribution for L=           0  read in
    real space projection operators read in
  non local Contribution for L=           1  read in
    real space projection operators read in
  non local Contribution for L=           1  read in
    real space projection operators read in
    PAW grid and wavefunctions read in
 
   number of l-projection  operators is LMAX  =           4
   number of lm-projection operators is LMMAX =           8
 
 POTCAR:     PAW_PBE Cu_pv 06Sep2000              
   SHA256 =  cb7b504e2ea725fe1f25c85a9ac77d4012ce94cd394135b722c4e25ec297f1cb Cu
   COPYR  = (c) Copyright 06Sep2000 Georg Kresse                                
   COPYR  = This file is part of the software VASP. Any use, copying, and all ot
   COPYR  = If you do not have a valid VASP license, you may not use, copy or di
   VRHFIN =Cu: d10 p1                                                           
   LEXCH  = PE                                                                  
   EATOM  =  4120.1201 eV,  302.8203 Ry                                         
                                                                                
   TITEL  = PAW_PBE Cu_pv 06Sep2000                                             
   LULTRA =        F    use ultrasoft PP ?                                      
   IUNSCR =        1    unscreen: 0-lin 1-nonlin 2-no                           
   RPACOR =    1.500    partial core radius                                     
   POMASS =   63.546; ZVAL   =   17.000    mass and valenz                      
   RCORE  =    2.000    outmost cutoff radius                                   
   RWIGS  =    2.000; RWIGS  =    1.058    wigner-seitz radius (au A)           
   ENMAX  =  368.648; ENMIN  =  276.486 eV                                      
   RCLOC  =    1.304    cutoff for local pot                                    
   LCOR   =        T    correct aug charges                                     
   LPAW   =        T    paw PP                                                  
   EAUG   =  758.233                                                            
   DEXC   =    0.000                                                            
   RMAX   =    2.046    core radius for proj-oper                               
   RAUG   =    1.300    factor for augmentation sphere                          
   RDEP   =    2.025    radius for radial grids                                 
   RDEPT  =    1.558    core radius for aug-charge                              
                                                                                
   Atomic configuration                                                         
    8 entries                                                                   
     n  l   j            E        occ.                                          
     1  0  0.50     -8850.2467   2.0000                                         
     2  0  0.50     -1062.3498   2.0000                                         
     2  1  1.50      -916.8226   6.0000                                         
     3  0  0.50      -114.6929   2.0000                                         
     3  1  1.50       -72.1325   6.0000                                         
     3  2  2.50        -5.0394  10.0000                                         
     4  0  0.50        -4.6097   1.0000                                         
     4  3  2.50        -1.3606   0.0000                                         
   Description                                                                  
     l       E           TYP  RCUT    TYP  RCUT                                 
     1    -72.1324777     23  1.700                                             
     1     -1.3605826     23  1.700                                             
     2     -5.0393776     23  2.000                                             
     2     -6.3999602     23  2.000                                             
     0     -4.6097062     23  1.800                                             
     0     14.1620818     23  1.800                                             
  local pseudopotential read in
  partial core-charges read in
  partial kinetic energy density read in
  atomic valenz-charges read in
  non local Contribution for L=           1  read in
    real space projection operators read in
  non local Contribution for L=           1  read in
    real space projection operators read in
  non local Contribution for L=           2  read in
    real space projection operators read in
  non local Contribution for L=           2  read in
    real space projection operators read in
  non local Contribution for L=           0  read in
    real space projection operators read in
  non local Contribution for L=           0  read in
    real space projection operators read in
    PAW grid and wavefunctions read in
 
   number of l-projection  operators is LMAX  =           6
   number of lm-projection operators is LMMAX =          18
 
 POTCAR:     PAW_PBE Fe_pv 02Aug2007              
   SHA256 =  5d22e414b1f82158bf2c7ecb8b97b28fd0923e48cadc1c3bf74d524558f5dd32 Fe
   COPYR  = (c) Copyright 02Aug2007 Georg Kresse                                
   COPYR  = This file is part of the software VASP. Any use, copying, and all ot
   COPYR  = If you do not have a valid VASP license, you may not use, copy or di
   VRHFIN =Fe:  3pd7s1                                                          
   LEXCH  = PE                                                                  
   EATOM  =  2457.4239 eV,  180.6156 Ry                                         
                                                                                
   TITEL  = PAW_PBE Fe_pv 02Aug2007                                             
   LULTRA =        F    use ultrasoft PP ?                                      
   IUNSCR =        1    unscreen: 0-lin 1-nonlin 2-no                           
   RPACOR =    1.750    partial core radius                                     
   POMASS =   55.847; ZVAL   =   14.000    mass and valenz                      
   RCORE  =    2.200    outmost cutoff radius                                   
   RWIGS  =    2.200; RWIGS  =    1.164    wigner-seitz radius (au A)           
   ENMAX  =  293.238; ENMIN  =  219.928 eV                                      
   ICORE  =        3    local potential                                         
   LCOR   =        T    correct aug charges                                     
   LPAW   =        T    paw PP                                                  
   EAUG   =  578.342                                                            
   DEXC   =    0.000                                                            
   RMAX   =    2.249    core radius for proj-oper                               
   RAUG   =    1.300    factor for augmentation sphere                          
   RDEP   =    2.296    radius for radial grids                                 
   RDEPT  =    1.766    core radius for aug-charge                              
                                                                                
   Atomic configuration                                                         
    8 entries                                                                   
     n  l   j            E        occ.                                          
     1  0  0.50     -6993.8440   2.0000                                         
     2  0  0.50      -814.6047   2.0000                                         
     2  1  1.50      -693.3689   6.0000                                         
     3  0  0.50       -89.4732   2.0000                                         
     3  1  1.50       -55.6373   6.0000                                         
     3  2  2.50        -3.8151   7.0000                                         
     4  0  0.50        -4.2551   1.0000                                         
     4  3  2.50        -1.3606   0.0000                                         
   Description                                                                  
     l       E           TYP  RCUT    TYP  RCUT                                 
     1    -55.6372668     23  2.000                                             
     1     -5.4423304     23  2.000                                             
     2     -3.8151096     23  2.200                                             
     2     -5.1756922     23  2.200                                             
     0     -4.2550951     23  2.200                                             
     0     27.2116520     23  2.200                                             
     3     -1.3605826     23  2.200                                             
  local pseudopotential read in
  partial core-charges read in
  partial kinetic energy density read in
  atomic valenz-charges read in
  non local Contribution for L=           1  read in
    real space projection operators read in
  non local Contribution for L=           1  read in
    real space projection operators read in
  non local Contribution for L=           2  read in
    real space projection operators read in
  non local Contribution for L=           2  read in
    real space projection operators read in
  non local Contribution for L=           0  read in
    real space projection operators read in
  non local Contribution for L=           0  read in
    real space projection operators read in
    PAW grid and wavefunctions read in
 
   number of l-projection  operators is LMAX  =           6
   number of lm-projection operators is LMMAX =          18
 

 ----------------------------------------------------------------------------- 
|                                                                             |
|  ADVICE TO THIS USER RUNNING 'VASP/VAMP'   (HEAR YOUR MASTER'S VOICE ...):  |
|                                                                             |
|      You have a (more or less) 'large supercell' and for larger cells       |
|      it might be more efficient to use real space projection opertators     |
|      So try LREAL= Auto  in the INCAR   file.                               |
|      Mind:          For very  accurate calculation you might also keep the  |
|      reciprocal projection scheme          (i.e. LREAL=.FALSE.)             |
|                                                                             |
 ----------------------------------------------------------------------------- 


 ----------------------------------------------------------------------------- 
|                                                                             |
|  ADVICE TO THIS USER RUNNING 'VASP/VAMP'   (HEAR YOUR MASTER'S VOICE ...):  |
|                                                                             |
|      You enforced a specific xc-type in the INCAR file,                     |
|      a different type was found on the POTCAR file                          |
|          I HOPE YOU KNOW, WHAT YOU ARE  DOING                               |
|                                                                             |
 ----------------------------------------------------------------------------- 

  PAW_PBE S 06Sep2000                   :
 energy of atom  1       EATOM= -276.8230
 kinetic energy error for atom=    0.0007 (will be added to EATOM!!)
   PAW_PBE Cu_pv 06Sep2000              :
 energy of atom  2       EATOM=-4120.1201
 kinetic energy error for atom=    0.0094 (will be added to EATOM!!)
   PAW_PBE Fe_pv 02Aug2007              :
 energy of atom  3       EATOM=-2457.4239
 kinetic energy error for atom=    0.0025 (will be added to EATOM!!)
 
 
 POSCAR: Fe16 Cu16 S32                           
  positions in direct lattice
  No initial velocities read in
 exchange correlation table for  LEXCH =       14
   RHO(1)=    0.500       N(1)  =     2000
   RHO(2)=  100.500       N(2)  =     4000
 


--------------------------------------------------------------------------------------------------------


 ion  position               nearest neighbor table
   1  0.126  0.125  0.124-  37 2.26  41 2.26  61 2.28  49 2.28
   2  0.626  0.125  0.124-  38 2.26  42 2.26  62 2.28  50 2.28
   3  0.126  0.625  0.124-  39 2.26  43 2.26  63 2.28  51 2.28
   4  0.626  0.625  0.124-  40 2.26  44 2.26  64 2.28  52 2.28
   5  0.374  0.375  0.124-  39 2.26  41 2.26  62 2.28  52 2.28
   6  0.874  0.375  0.124-  40 2.26  42 2.26  61 2.28  51 2.28
   7  0.374  0.875  0.124-  37 2.26  43 2.26  64 2.28  50 2.28
   8  0.874  0.875  0.124-  38 2.26  44 2.26  63 2.28  49 2.28
   9  0.125  0.374  0.874-  41 2.26  45 2.26  51 2.28  55 2.28
  10  0.625  0.374  0.874-  42 2.26  46 2.26  52 2.28  56 2.28
  11  0.125  0.874  0.874-  43 2.26  47 2.26  49 2.28  53 2.28
  12  0.625  0.874  0.874-  44 2.26  48 2.26  50 2.28  54 2.28
  13  0.375  0.126  0.874-  41 2.26  46 2.26  50 2.28  53 2.28
  14  0.875  0.126  0.874-  42 2.26  45 2.26  49 2.28  54 2.28
  15  0.375  0.626  0.874-  43 2.26  48 2.26  52 2.28  55 2.28
  16  0.875  0.626  0.874-  44 2.26  47 2.26  51 2.28  56 2.28
  17  0.124  0.125  0.624-  45 2.26  33 2.26  53 2.28  57 2.28
  18  0.624  0.125  0.624-  46 2.26  34 2.26  54 2.28  58 2.28
  19  0.124  0.625  0.624-  47 2.26  35 2.26  55 2.28  59 2.28
  20  0.624  0.625  0.624-  48 2.26  36 2.26  56 2.28  60 2.28
  21  0.376  0.375  0.624-  46 2.26  36 2.26  55 2.28  57 2.28
  22  0.876  0.375  0.624-  45 2.26  35 2.26  56 2.28  58 2.28
  23  0.376  0.875  0.624-  48 2.26  34 2.26  53 2.28  59 2.28
  24  0.876  0.875  0.624-  47 2.26  33 2.26  54 2.28  60 2.28
  25  0.375  0.124  0.374-  34 2.26  37 2.26  57 2.28  62 2.28
  26  0.875  0.124  0.374-  33 2.26  38 2.26  58 2.28  61 2.28
  27  0.375  0.624  0.374-  36 2.26  39 2.26  59 2.28  64 2.28
  28  0.875  0.624  0.374-  35 2.26  40 2.26  60 2.28  63 2.28
  29  0.125  0.376  0.374-  35 2.26  39 2.26  57 2.28  61 2.28
  30  0.625  0.376  0.374-  36 2.26  40 2.26  58 2.28  62 2.28
  31  0.125  0.876  0.374-  33 2.26  37 2.26  59 2.28  63 2.28
  32  0.625  0.876  0.374-  34 2.26  38 2.26  60 2.28  64 2.28
  33  0.000  0.000  0.501-  26 2.26  31 2.26  17 2.26  24 2.26
  34  0.500  0.000  0.501-  25 2.26  32 2.26  18 2.26  23 2.26
  35  0.000  0.500  0.501-  28 2.26  29 2.26  19 2.26  22 2.26
  36  0.500  0.500  0.501-  27 2.26  30 2.26  20 2.26  21 2.26
  37  0.250  0.000  0.251-   1 2.26   7 2.26  25 2.26  31 2.26
  38  0.750  0.000  0.251-   2 2.26   8 2.26  26 2.26  32 2.26
  39  0.250  0.500  0.251-   3 2.26   5 2.26  27 2.26  29 2.26
  40  0.750  0.500  0.251-   4 2.26   6 2.26  28 2.26  30 2.26
  41  0.250  0.250  0.001-   9 2.26  13 2.26   1 2.26   5 2.26
  42  0.750  0.250  0.001-  10 2.26  14 2.26   2 2.26   6 2.26
  43  0.250  0.750  0.001-  11 2.26  15 2.26   3 2.26   7 2.26
  44  0.750  0.750  0.001-  12 2.26  16 2.26   4 2.26   8 2.26
  45  0.000  0.250  0.751-  17 2.26  22 2.26   9 2.26  14 2.26
  46  0.500  0.250  0.751-  18 2.26  21 2.26  10 2.26  13 2.26
  47  0.000  0.750  0.751-  19 2.26  24 2.26  11 2.26  16 2.26
  48  0.500  0.750  0.751-  20 2.26  23 2.26  12 2.26  15 2.26
  49  0.000  0.000  0.001-  11 2.28  14 2.28   1 2.28   8 2.28
  50  0.500  0.000  0.001-  12 2.28  13 2.28   2 2.28   7 2.28
  51  0.000  0.500  0.001-   9 2.28  16 2.28   3 2.28   6 2.28
  52  0.500  0.500  0.001-  10 2.28  15 2.28   4 2.28   5 2.28
  53  0.250  0.000  0.751-  17 2.28  23 2.28  11 2.28  13 2.28
  54  0.750  0.000  0.751-  18 2.28  24 2.28  12 2.28  14 2.28
  55  0.250  0.500  0.751-  19 2.28  21 2.28   9 2.28  15 2.28
  56  0.750  0.500  0.751-  20 2.28  22 2.28  10 2.28  16 2.28
  57  0.250  0.250  0.501-  25 2.28  29 2.28  17 2.28  21 2.28
  58  0.750  0.250  0.501-  26 2.28  30 2.28  18 2.28  22 2.28
  59  0.250  0.750  0.501-  27 2.28  31 2.28  19 2.28  23 2.28
  60  0.750  0.750  0.501-  28 2.28  32 2.28  20 2.28  24 2.28
  61  0.000  0.250  0.251-   1 2.28   6 2.28  26 2.28  29 2.28
  62  0.500  0.250  0.251-   2 2.28   5 2.28  25 2.28  30 2.28
  63  0.000  0.750  0.251-   3 2.28   8 2.28  28 2.28  31 2.28
  64  0.500  0.750  0.251-   4 2.28   7 2.28  27 2.28  32 2.28
 
  LATTYP: Found a base centered orthorhombic cell.
 ALAT       =    14.7770864005
 B/A-ratio  =     1.0122798612
 C/A-ratio  =     0.7047798678
  
  Lattice vectors:
  
 A1 = (  10.5131340000,   0.0641560000,   0.0000000000)
 A2 = (  -0.0641560000, -10.5131340000,   0.0000000000)
 A3 = (   0.0000000000,   0.0000000000, -10.4145930000)


Analysis of symmetry for initial positions (statically):
=====================================================================
 Subroutine PRICEL returns following result:
 
  LATTYP: Found a face centered orthorhombic cell.
 ALAT       =     7.3885432003
 B/A-ratio  =     1.0122798612
 C/A-ratio  =     1.4095597356
  
  Lattice vectors:
  
 A1 = (  -2.6443225000,  -2.6443225000,   5.2072965000)
 A2 = (  -2.6122445000,   2.6122445000,   5.2072965000)
 A3 = (  -5.2565670000,  -0.0320780000,   0.0000000000)
 
   8 primitive cells build up your supercell.
 

 Routine SETGRP: Setting up the symmetry group for a 
 base centered orthorhombic supercell.


 Subroutine GETGRP returns: Found  4 space group operations
 (whereof  2 operations were pure point group operations)
 out of a pool of  8 trial point group operations.


The static configuration has the point symmetry C_2 .
 The point group associated with its full space group is C_2v.


Analysis of symmetry for dynamics (positions and initial velocities):
=====================================================================
 Subroutine PRICEL returns following result:
 
  LATTYP: Found a face centered orthorhombic cell.
 ALAT       =     7.3885432003
 B/A-ratio  =     1.0122798612
 C/A-ratio  =     1.4095597356
  
  Lattice vectors:
  
 A1 = (  -2.6443225000,  -2.6443225000,   5.2072965000)
 A2 = (  -2.6122445000,   2.6122445000,   5.2072965000)
 A3 = (  -5.2565670000,  -0.0320780000,   0.0000000000)
 
   8 primitive cells build up your supercell.
 

 Routine SETGRP: Setting up the symmetry group for a 
 base centered orthorhombic supercell.


 Subroutine GETGRP returns: Found  4 space group operations
 (whereof  2 operations were pure point group operations)
 out of a pool of  8 trial point group operations.


The dynamic configuration has the point symmetry C_2 .
 The point group associated with its full space group is C_2v.


Analysis of structural, dynamic, and magnetic symmetry:
=====================================================================
 Subroutine PRICEL returns following result:
 
  LATTYP: Found a face centered orthorhombic cell.
 ALAT       =     7.3885432003
 B/A-ratio  =     1.0122798612
 C/A-ratio  =     1.4095597356
  
  Lattice vectors:
  
 A1 = (  -2.6443225000,  -2.6443225000,   5.2072965000)
 A2 = (  -2.6122445000,   2.6122445000,   5.2072965000)
 A3 = (  -5.2565670000,  -0.0320780000,   0.0000000000)
 
   8 primitive cells build up your supercell.
 

 Routine SETGRP: Setting up the symmetry group for a 
 base centered orthorhombic supercell.


 Subroutine GETGRP returns: Found  4 space group operations
 (whereof  2 operations were pure point group operations)
 out of a pool of  8 trial point group operations.


The magnetic configuration has the point symmetry C_2 .
 The point group associated with its full space group is C_2v.


 Subroutine INISYM returns: Found  4 space group operations
 (whereof  2 operations are pure point group operations),
 and found     8 'primitive' translations

 
 
 KPOINTS: Automatic mesh                          

Automatic generation of k-mesh.
Space group operators:
 irot       det(A)        alpha          n_x          n_y          n_z        tau_x        tau_y        tau_z
    1     1.000000     0.000001     1.000000     0.000000     0.000000     0.000000     0.000000     0.000000
    2     1.000000   179.999999     0.000000     0.000000     1.000000     0.000000     0.000000     0.000000
    3    -1.000000   180.000000     0.707107     0.707107     0.000000    -0.750000    -0.000000     0.750000
    4    -1.000000   180.000000     0.707107    -0.707107     0.000000    -0.750000    -0.000000     0.750000
 
 Subroutine IBZKPT returns following result:
 ===========================================
 
 Found      1 irreducible k-points:
 
 Following reciprocal coordinates:
            Coordinates               Weight
  0.000000  0.000000  0.000000      1.000000
 
 Following cartesian coordinates:
            Coordinates               Weight
  0.000000  0.000000  0.000000      1.000000
 
 
 Subroutine IBZKPT_HF returns following result:
 ==============================================
 
 Found      1 k-points in 1st BZ
 the following      1 k-points will be used (e.g. in the exchange kernel)
 Following reciprocal coordinates:   # in IRBZ
  0.000000  0.000000  0.000000    1.00000000   1 t-inv F


--------------------------------------------------------------------------------------------------------




 Dimension of arrays:
   k-points           NKPTS =      1   k-points in BZ     NKDIM =      1   number of bands    NBANDS=    512
   number of dos      NEDOS =    301   number of ions     NIONS =     64
   non local maximal  LDIM  =      6   non local SUM 2l+1 LMDIM =     18
   total plane-waves  NPLWV = 829440
   max r-space proj   IRMAX =      1   max aug-charges    IRDMAX=  22899
   dimension x,y,z NGX =    96 NGY =   96 NGZ =   90
   dimension x,y,z NGXF=   192 NGYF=  192 NGZF=  180
   support grid    NGXF=   192 NGYF=  192 NGZF=  180
   ions per type =              32  16  16
   NGX,Y,Z   is equivalent  to a cutoff of  15.18, 15.18, 14.37 a.u.
   NGXF,Y,Z  is equivalent  to a cutoff of  30.36, 30.36, 28.73 a.u.

 SYSTEM =  CuFeS2                                  
 POSCAR =  Fe16 Cu16 S32                           

 Startparameter for this run:
   NWRITE =      2    write-flag & timer
   PREC   = accura    normal or accurate (medium, high low for compatibility)
   ISTART =      1    job   : 0-new  1-cont  2-samecut
   ICHARG =      1    charge: 1-file 2-atom 10-const
   ISPIN  =      2    spin polarized calculation?
   LNONCOLLINEAR =      F non collinear calculations
   LSORBIT =      F    spin-orbit coupling
   INIWAV =      1    electr: 0-lowe 1-rand  2-diag
   LASPH  =      F    aspherical Exc in radial PAW
   METAGGA=      F    non-selfconsistent MetaGGA calc.

 Electronic Relaxation 1
   ENCUT  =  700.0 eV  51.45 Ry    7.17 a.u.  22.68 22.68 22.47*2*pi/ulx,y,z
   ENINI  =  700.0     initial cutoff
   ENAUG  =  758.2 eV  augmentation charge cutoff
   NELM   =    500;   NELMIN=  2; NELMDL=  0     # of ELM steps 
   EDIFF  = 0.1E-07   stopping-criterion for ELM
   LREAL  =      F    real-space projection
   NLSPLINE    = F    spline interpolate recip. space projectors
   LCOMPAT=      F    compatible to vasp.4.4
   GGA_COMPAT  = T    GGA compatible to vasp.4.4-vasp.4.6
   LMAXPAW     = -100 max onsite density
   LMAXMIX     =    4 max onsite mixed and CHGCAR
   VOSKOWN=      0    Vosko Wilk Nusair interpolation
   ROPT   =    0.00000   0.00000   0.00000
 Ionic relaxation
   EDIFFG = -.1E-04   stopping-criterion for IOM
   NSW    =      0    number of steps for IOM
   NBLOCK =      1;   KBLOCK =      1    inner block; outer block 
   IBRION =     -1    ionic relax: 0-MD 1-quasi-New 2-CG
   NFREE  =      0    steps in history (QN), initial steepest desc. (CG)
   ISIF   =      2    stress and relaxation
   IWAVPR =     10    prediction:  0-non 1-charg 2-wave 3-comb
   ISYM   =      2    0-nonsym 1-usesym 2-fastsym
   LCORR  =      T    Harris-Foulkes like correction to forces

   POTIM  = 0.5000    time-step for ionic-motion
   TEIN   =    0.0    initial temperature
   TEBEG  =    0.0;   TEEND  =   0.0 temperature during run
   SMASS  =  -3.00    Nose mass-parameter (am)
   estimated Nose-frequenzy (Omega)   =  0.10E-29 period in steps =****** mass=  -0.253E-26a.u.
   SCALEE = 1.0000    scale energy and forces
   NPACO  =    256;   APACO  = 16.0  distance and # of slots for P.C.
   PSTRESS=    0.0 pullay stress

  Mass of Ions in am
   POMASS =  32.07 63.55 55.85
  Ionic Valenz
   ZVAL   =   6.00 17.00 14.00
  Atomic Wigner-Seitz radii
   RWIGS  =  -1.00 -1.00 -1.00
  virtual crystal weights 
   VCA    =   1.00  1.00  1.00
   NELECT =     688.0000    total number of electrons
   NUPDOWN=      -1.0000    fix difference up-down

 DOS related values:
   EMIN   =  10.00;   EMAX   =-10.00  energy-range for DOS
   EFERMI =   0.00
   ISMEAR =     0;   SIGMA  =   0.03  broadening in eV -4-tet -1-fermi 0-gaus

 Electronic relaxation 2 (details)
   IALGO  =     38    algorithm
   LDIAG  =      T    sub-space diagonalisation (order eigenvalues)
   LSUBROT=      F    optimize rotation matrix (better conditioning)
   TURBO    =      0    0=normal 1=particle mesh
   IRESTART =      0    0=no restart 2=restart with 2 vectors
   NREBOOT  =      0    no. of reboots
   NMIN     =      0    reboot dimension
   EREF     =   0.00    reference energy to select bands
   IMIX   =      4    mixing-type and parameters
     AMIX     =   0.40;   BMIX     =  1.00
     AMIX_MAG =   1.60;   BMIX_MAG =  1.00
     AMIN     =   0.10
     WC   =   100.;   INIMIX=   1;  MIXPRE=   1;  MAXMIX= -45

 Intra band minimization:
   WEIMIN = 0.0000     energy-eigenvalue tresh-hold
   EBREAK =  0.49E-11  absolut break condition
   DEPER  =   0.30     relativ break condition  

   TIME   =   0.40     timestep for ELM

  volume/ion in A,a.u.               =      17.99       121.37
  Fermi-wavevector in a.u.,A,eV,Ry     =   1.379031  2.605991 25.874572  1.901727
  Thomas-Fermi vector in A             =   2.504038
 
 Write flags
   LWAVE        =      T    write WAVECAR
   LDOWNSAMPLE  =      F    k-point downsampling of WAVECAR
   LCHARG       =      T    write CHGCAR
   LVTOT        =      F    write LOCPOT, total local potential
   LVHAR        =      F    write LOCPOT, Hartree potential only
   LELF         =      F    write electronic localiz. function (ELF)
   LORBIT       =     11    0 simple, 1 ext, 2 COOP (PROOUT), +10 PAW based schemes


 Dipole corrections
   LMONO  =      F    monopole corrections only (constant potential shift)
   LDIPOL =      F    correct potential (dipole corrections)
   IDIPOL =      0    1-x, 2-y, 3-z, 4-all directions 
   EPSILON=  1.0000000 bulk dielectric constant

 LDA+U is selected, type is set to LDAUTYPE =  2
   angular momentum for each species LDAUL =     2    2    2
   U (eV)           for each species LDAUU =   0.0  0.1  4.7
   J (eV)           for each species LDAUJ =   0.0  0.0  0.0
 Exchange correlation treatment:
   GGA     =    PS    GGA type
   LEXCH   =    14    internal setting for exchange type
   VOSKOWN=      0    Vosko Wilk Nusair interpolation
   LHFCALC =     F    Hartree Fock is set to
   LHFONE  =     F    Hartree Fock one center treatment
   AEXX    =    0.0000 exact exchange contribution

 Linear response parameters
   LEPSILON=     F    determine dielectric tensor
   LRPA    =     F    only Hartree local field effects (RPA)
   LNABLA  =     F    use nabla operator in PAW spheres
   LVEL    =     F    velocity operator in full k-point grid
   LINTERFAST=   F  fast interpolation
   KINTER  =     0    interpolate to denser k-point grid
   CSHIFT  =0.1000    complex shift for real part using Kramers Kronig
   OMEGAMAX=  -1.0    maximum frequency
   DEG_THRESHOLD= 0.2000000E-02 threshold for treating states as degnerate
   RTIME   =   -0.100 relaxation time in fs
  (WPLASMAI=    0.000 imaginary part of plasma frequency in eV, 0.658/RTIME)
   DFIELD  = 0.0000000 0.0000000 0.0000000 field for delta impulse in time
 
 Orbital magnetization related:
   ORBITALMAG=     F  switch on orbital magnetization
   LCHIMAG   =     F  perturbation theory with respect to B field
   DQ        =  0.001000  dq finite difference perturbation B field
   LLRAUG    =     F  two centre corrections for induced B field

 PEAD related settings:
   LPEAD      =     T    switch on PEAD
   IPEAD      =     4    finite difference order for dpsi/dk
   LCALCPOL   =     T    calculate macroscopic polarization
   LCALCEPS   =     F    calculate dielectric tensor
   EFIELD_PEAD=    0.0000    0.0000    0.0000
   SKIP_EDOTP =     F
   LRPA       =     F
   SKIP_SCF   =     F


--------------------------------------------------------------------------------------------------------


 Static calculation
 charge density and potential will be updated during run
 spin polarized calculation
 Variant of blocked Davidson
 Davidson routine will perform the subspace rotation
 perform sub-space diagonalisation
    after iterative eigenvector-optimisation
 modified Broyden-mixing scheme, WC =      100.0
 initial mixing is a Kerker type mixing with AMIX =  0.4000 and BMIX =      1.0000
 Hartree-type preconditioning will be used
 using additional bands          168
 reciprocal scheme for non local part
 use partial core corrections
 calculate Harris-corrections to forces 
   (improved forces if not selfconsistent)
 use gradient corrections 
 use of overlap-Matrix (Vanderbilt PP)
 Gauss-broadening in eV      SIGMA  =   0.03


--------------------------------------------------------------------------------------------------------


  energy-cutoff  :      700.00
  volume of cell :     1151.04
      direct lattice vectors                 reciprocal lattice vectors
    10.513134000  0.064156000  0.000000000     0.095122657 -0.000580482  0.000000000
     0.064156000 10.513134000  0.000000000    -0.000580482  0.095122657  0.000000000
     0.000000000  0.000000000 10.414593000     0.000000000  0.000000000  0.096019115

  length of vectors
    10.513329753 10.513329753 10.414593000     0.095124428  0.095124428  0.096019115


 
 old parameters found on file WAVECAR:
  energy-cutoff  :      700.00
  volume of cell :     1151.04
      direct lattice vectors                 reciprocal lattice vectors
    10.513134000  0.064156000  0.000000000     0.095122657 -0.000580482  0.000000000
     0.064156000 10.513134000  0.000000000    -0.000580482  0.095122657  0.000000000
     0.000000000  0.000000000 10.414593000     0.000000000  0.000000000  0.096019115

  length of vectors

 
 k-points in units of 2pi/SCALE and weight: Automatic mesh                          
   0.00000000  0.00000000  0.00000000       1.000
 
 k-points in reciprocal lattice and weights: Automatic mesh                          
   0.00000000  0.00000000  0.00000000       1.000
 
 position of ions in fractional coordinates (direct lattice) 
   0.12615800  0.12507100  0.12431600
   0.62615800  0.12507100  0.12431600
   0.12615800  0.62507100  0.12431600
   0.62615800  0.62507100  0.12431600
   0.37384200  0.37492900  0.12431600
   0.87384200  0.37492900  0.12431600
   0.37384200  0.87492900  0.12431600
   0.87384200  0.87492900  0.12431600
   0.12492900  0.37384200  0.87431600
   0.62492900  0.37384200  0.87431600
   0.12492900  0.87384200  0.87431600
   0.62492900  0.87384200  0.87431600
   0.37507100  0.12615800  0.87431600
   0.87507100  0.12615800  0.87431600
   0.37507100  0.62615800  0.87431600
   0.87507100  0.62615800  0.87431600
   0.12384200  0.12492900  0.62431600
   0.62384200  0.12492900  0.62431600
   0.12384200  0.62492900  0.62431600
   0.62384200  0.62492900  0.62431600
   0.37615800  0.37507100  0.62431600
   0.87615800  0.37507100  0.62431600
   0.37615800  0.87507100  0.62431600
   0.87615800  0.87507100  0.62431600
   0.37492900  0.12384200  0.37431600
   0.87492900  0.12384200  0.37431600
   0.37492900  0.62384200  0.37431600
   0.87492900  0.62384200  0.37431600
   0.12507100  0.37615800  0.37431600
   0.62507100  0.37615800  0.37431600
   0.12507100  0.87615800  0.37431600
   0.62507100  0.87615800  0.37431600
   0.00000000  0.00000000  0.50059100
   0.50000000  0.00000000  0.50059100
   0.00000000  0.50000000  0.50059100
   0.50000000  0.50000000  0.50059100
   0.25000000  0.00000000  0.25059100
   0.75000000  0.00000000  0.25059100
   0.25000000  0.50000000  0.25059100
   0.75000000  0.50000000  0.25059100
   0.25000000  0.25000000  0.00059100
   0.75000000  0.25000000  0.00059100
   0.25000000  0.75000000  0.00059100
   0.75000000  0.75000000  0.00059100
   0.00000000  0.25000000  0.75059100
   0.50000000  0.25000000  0.75059100
   0.00000000  0.75000000  0.75059100
   0.50000000  0.75000000  0.75059100
   0.00000000  0.00000000  0.00077600
   0.50000000  0.00000000  0.00077600
   0.00000000  0.50000000  0.00077600
   0.50000000  0.50000000  0.00077600
   0.25000000  0.00000000  0.75077600
   0.75000000  0.00000000  0.75077600
   0.25000000  0.50000000  0.75077600
   0.75000000  0.50000000  0.75077600
   0.25000000  0.25000000  0.50077600
   0.75000000  0.25000000  0.50077600
   0.25000000  0.75000000  0.50077600
   0.75000000  0.75000000  0.50077600
   0.00000000  0.25000000  0.25077600
   0.50000000  0.25000000  0.25077600
   0.00000000  0.75000000  0.25077600
   0.50000000  0.75000000  0.25077600
 
 position of ions in cartesian coordinates  (Angst):
   1.33434001  1.32298198  1.29470054
   6.59090701  1.35505998  1.29470054
   1.36641801  6.57954898  1.29470054
   6.62298501  6.61162698  1.29470054
   3.95430499  3.96566302  1.29470054
   9.21087199  3.99774102  1.29470054
   3.98638299  9.22223002  1.29470054
   9.24294999  9.25430802  1.29470054
   1.33737952  3.93826599  9.10564529
   6.59394652  3.97034399  9.10564529
   1.36945752  9.19483299  9.10564529
   6.62602452  9.22691099  9.10564529
   3.95126548  1.35037901  9.10564529
   9.20783248  1.38245701  9.10564529
   3.98334348  6.60694601  9.10564529
   9.23991048  6.63902401  9.10564529
   1.30998249  1.32134052  6.50199704
   6.56654949  1.35341852  6.50199704
   1.34206049  6.57790752  6.50199704
   6.59862749  6.60998552  6.50199704
   3.97866251  3.96730448  6.50199704
   9.23522951  3.99938248  6.50199704
   4.01074051  9.22387148  6.50199704
   9.26730751  9.25594948  6.50199704
   3.94962402  1.32602149  3.89834879
   9.20619102  1.35809949  3.89834879
   3.98170202  6.58258849  3.89834879
   9.23826902  6.61466649  3.89834879
   1.33902098  3.96262351  3.89834879
   6.59558798  3.99470151  3.89834879
   1.37109898  9.21919051  3.89834879
   6.62766598  9.25126851  3.89834879
   0.00000000  0.00000000  5.21345152
   5.25656700  0.03207800  5.21345152
   0.03207800  5.25656700  5.21345152
   5.28864500  5.28864500  5.21345152
   2.62828350  0.01603900  2.60980327
   7.88485050  0.04811700  2.60980327
   2.66036150  5.27260600  2.60980327
   7.91692850  5.30468400  2.60980327
   2.64432250  2.64432250  0.00615502
   7.90088950  2.67640050  0.00615502
   2.67640050  7.90088950  0.00615502
   7.93296750  7.93296750  0.00615502
   0.01603900  2.62828350  7.81709977
   5.27260600  2.66036150  7.81709977
   0.04811700  7.88485050  7.81709977
   5.30468400  7.91692850  7.81709977
   0.00000000  0.00000000  0.00808172
   5.25656700  0.03207800  0.00808172
   0.03207800  5.25656700  0.00808172
   5.28864500  5.28864500  0.00808172
   2.62828350  0.01603900  7.81902647
   7.88485050  0.04811700  7.81902647
   2.66036150  5.27260600  7.81902647
   7.91692850  5.30468400  7.81902647
   2.64432250  2.64432250  5.21537822
   7.90088950  2.67640050  5.21537822
   2.67640050  7.90088950  5.21537822
   7.93296750  7.93296750  5.21537822
   0.01603900  2.62828350  2.61172997
   5.27260600  2.66036150  2.61172997
   0.04811700  7.88485050  2.61172997
   5.30468400  7.91692850  2.61172997
 


--------------------------------------------------------------------------------------------------------


 k-point  1 :   0.0000 0.0000 0.0000  plane waves:   48435

 maximum and minimum number of plane-waves per node :     48435    48435

 maximum number of plane-waves:     48435
 maximum index in each direction: 
   IXMAX=   22   IYMAX=   22   IZMAX=   22
   IXMIN=  -22   IYMIN=  -22   IZMIN=  -22


 serial   3D FFT for wavefunctions
 parallel 3D FFT for charge:
    minimum data exchange during FFTs selected (reduces bandwidth)


 total amount of memory used by VASP MPI-rank0   180294. kBytes
=======================================================================

   base      :      30000. kBytes
   nonl-proj :      70819. kBytes
   fftplans  :       4588. kBytes
   grid      :      69719. kBytes
   one-center:       1990. kBytes
   wavefun   :       3178. kBytes
 
     INWAV:  cpu time    2.0682: real time    2.2131
 Broyden mixing: mesh for mixing (old mesh)
   NGX = 45   NGY = 45   NGZ = 45
  (NGX  =192   NGY  =192   NGZ  =180)
  gives a total of  91125 points

 initial charge density was supplied:
 number of electron     688.0000466 magnetization       0.0000000
 keeping initial charge density in first step


--------------------------------------------------------------------------------------------------------


 Maximum index for augmentation-charges          899 (set IRDMAX)


--------------------------------------------------------------------------------------------------------


 First call to EWALD:  gamma=   0.169
 Maximum number of real-space cells 3x 3x 3
 Maximum number of reciprocal cells 3x 3x 3

    FEWALD:  cpu time    0.0028: real time    0.0029


--------------------------------------- Iteration      1(   1)  ---------------------------------------


    POTLOK:  cpu time    0.4610: real time    0.5329
    SETDIJ:  cpu time    0.0174: real time    0.0175
     EDDAV:  cpu time    5.5322: real time    5.6281
       DOS:  cpu time    0.0019: real time    0.0020
    CHARGE:  cpu time    0.6279: real time    0.6311
    MIXING:  cpu time    0.0041: real time    0.0042
    --------------------------------------------
      LOOP:  cpu time    6.6445: real time    6.8158

 eigenvalue-minimisations  :  1024
 total energy-change (2. order) :-0.3273999E+03  (-0.1038926E-09)
 number of electron     688.0000465 magnetization       0.0000000
 augmentation part      282.2867858 magnetization       0.0000000

 Broyden mixing:
  rms(total) = 0.11718E+00    rms(broyden)= 0.11716E+00
  rms(prec ) = 0.12786E+00
  weight for this iteration     100.00

 Free energy of the ion-electron system (eV)
  ---------------------------------------------------
  alpha Z        PSCENC =      2355.39150745
  Ewald energy   TEWEN  =    -62461.10860797
  -Hartree energ DENC   =    -42957.69859964
  -exchange      EXHF   =         0.00000000
  -V(xc)+E(xc)   XCENC  =      3286.49816706
  PAW double counting   =    112276.17444091  -115970.19087725
  entropy T*S    EENTRO =        -0.00000000
  eigenvalues    EBANDS =    -10876.53102788
  atomic energy  EATOM  =    114020.06510763
  Solvation  Ediel_sol  =         0.00000000
  ---------------------------------------------------
  free energy    TOTEN  =      -327.39988969 eV

  energy without entropy =     -327.39988969  energy(sigma->0) =     -327.39988969


--------------------------------------------------------------------------------------------------------




--------------------------------------- Iteration      1(   2)  ---------------------------------------


    POTLOK:  cpu time    0.1200: real time    0.1225
    SETDIJ:  cpu time    0.0129: real time    0.0130
     EDDAV:  cpu time   16.1230: real time   16.2386
       DOS:  cpu time    0.0005: real time    0.0005
    CHARGE:  cpu time    0.6298: real time    0.6330
    MIXING:  cpu time    0.0024: real time    0.0098
    --------------------------------------------
      LOOP:  cpu time   16.8886: real time   17.0174

 eigenvalue-minimisations  :  2560
 total energy-change (2. order) :-0.7412975E-02  (-0.1801355E-01)
 number of electron     688.0000465 magnetization       0.0000000
 augmentation part      282.2909844 magnetization       0.0000000

 Broyden mixing:
  rms(total) = 0.14352E+00    rms(broyden)= 0.14351E+00
  rms(prec ) = 0.16867E+00
  weight for this iteration     100.00

 eigenvalues of (default mixing * dielectric matrix)
  average eigenvalue GAMMA=   0.4589
  0.4589

 Free energy of the ion-electron system (eV)
  ---------------------------------------------------
  alpha Z        PSCENC =      2355.39150745
  Ewald energy   TEWEN  =    -62461.10860797
  -Hartree energ DENC   =    -42967.68056487
  -exchange      EXHF   =         0.00000000
  -V(xc)+E(xc)   XCENC  =      3287.10175805
  PAW double counting   =    112280.52779511  -115974.60313008
  entropy T*S    EENTRO =        -0.00000000
  eigenvalues    EBANDS =    -10867.10116797
  atomic energy  EATOM  =    114020.06510763
  Solvation  Ediel_sol  =         0.00000000
  ---------------------------------------------------
  free energy    TOTEN  =      -327.40730266 eV

  energy without entropy =     -327.40730266  energy(sigma->0) =     -327.40730266


--------------------------------------------------------------------------------------------------------




--------------------------------------- Iteration      1(   3)  ---------------------------------------


    POTLOK:  cpu time    0.1221: real time    0.1232
    SETDIJ:  cpu time    0.0128: real time    0.0129
     EDDAV:  cpu time   15.5737: real time   15.6906
       DOS:  cpu time    0.0004: real time    0.0004
    CHARGE:  cpu time    0.6324: real time    0.6355
    MIXING:  cpu time    0.0015: real time    0.0023
    --------------------------------------------
      LOOP:  cpu time   16.3430: real time   16.4649

 eigenvalue-minimisations  :  2560
 total energy-change (2. order) : 0.8268508E-02  (-0.1097656E-01)
 number of electron     688.0000465 magnetization       0.0000000
 augmentation part      282.2862804 magnetization       0.0000000

 Broyden mixing:
  rms(total) = 0.55311E-01    rms(broyden)= 0.55308E-01
  rms(prec ) = 0.58203E-01
  weight for this iteration     100.00

 eigenvalues of (default mixing * dielectric matrix)
  average eigenvalue GAMMA=   0.4792
  0.6008  0.3577

 Free energy of the ion-electron system (eV)
  ---------------------------------------------------
  alpha Z        PSCENC =      2355.39150745
  Ewald energy   TEWEN  =    -62461.10860797
  -Hartree energ DENC   =    -42964.79847966
  -exchange      EXHF   =         0.00000000
  -V(xc)+E(xc)   XCENC  =      3286.89603320
  PAW double counting   =    112278.41323447  -115972.29949060
  entropy T*S    EENTRO =        -0.00000000
  eigenvalues    EBANDS =    -10869.95833867
  atomic energy  EATOM  =    114020.06510763
  Solvation  Ediel_sol  =         0.00000000
  ---------------------------------------------------
  free energy    TOTEN  =      -327.39903416 eV

  energy without entropy =     -327.39903416  energy(sigma->0) =     -327.39903416


--------------------------------------------------------------------------------------------------------




--------------------------------------- Iteration      1(   4)  ---------------------------------------


    POTLOK:  cpu time    0.1355: real time    0.1395
    SETDIJ:  cpu time    0.0132: real time    0.0132
     EDDAV:  cpu time   15.5418: real time   15.6552
       DOS:  cpu time    0.0005: real time    0.0005
    CHARGE:  cpu time    0.6291: real time    0.6323
    MIXING:  cpu time    0.0012: real time    0.0012
    --------------------------------------------
      LOOP:  cpu time   16.3212: real time   16.4419

 eigenvalue-minimisations  :  2560
 total energy-change (2. order) : 0.1045512E-03  (-0.3800676E-03)
 number of electron     688.0000465 magnetization       0.0000000
 augmentation part      282.2807658 magnetization       0.0000000

 Broyden mixing:
  rms(total) = 0.22347E-01    rms(broyden)= 0.22347E-01
  rms(prec ) = 0.23162E-01
  weight for this iteration     100.00

 eigenvalues of (default mixing * dielectric matrix)
  average eigenvalue GAMMA=   0.8806
  1.6783  0.6220  0.3415

 Free energy of the ion-electron system (eV)
  ---------------------------------------------------
  alpha Z        PSCENC =      2355.39150745
  Ewald energy   TEWEN  =    -62461.10860797
  -Hartree energ DENC   =    -42967.10983890
  -exchange      EXHF   =         0.00000000
  -V(xc)+E(xc)   XCENC  =      3286.99758110
  PAW double counting   =    112287.42218323  -115981.11094419
  entropy T*S    EENTRO =        -0.00000000
  eigenvalues    EBANDS =    -10867.94591796
  atomic energy  EATOM  =    114020.06510763
  Solvation  Ediel_sol  =         0.00000000
  ---------------------------------------------------
  free energy    TOTEN  =      -327.39892960 eV

  energy without entropy =     -327.39892960  energy(sigma->0) =     -327.39892960


--------------------------------------------------------------------------------------------------------




--------------------------------------- Iteration      1(   5)  ---------------------------------------


    POTLOK:  cpu time    0.1181: real time    0.1217
    SETDIJ:  cpu time    0.0128: real time    0.0129
     EDDAV:  cpu time   15.5694: real time   15.6806
       DOS:  cpu time    0.0004: real time    0.0004
    CHARGE:  cpu time    0.6284: real time    0.6316
    MIXING:  cpu time    0.0014: real time    0.0014
    --------------------------------------------
      LOOP:  cpu time   16.3305: real time   16.4485

 eigenvalue-minimisations  :  2560
 total energy-change (2. order) :-0.2331281E-03  (-0.9615325E-04)
 number of electron     688.0000465 magnetization       0.0000000
 augmentation part      282.2834511 magnetization       0.0000000

 Broyden mixing:
  rms(total) = 0.79327E-02    rms(broyden)= 0.79324E-02
  rms(prec ) = 0.84139E-02
  weight for this iteration     100.00

 eigenvalues of (default mixing * dielectric matrix)
  average eigenvalue GAMMA=   1.0127
  1.9342  1.1704  0.3442  0.6020

 Free energy of the ion-electron system (eV)
  ---------------------------------------------------
  alpha Z        PSCENC =      2355.39150745
  Ewald energy   TEWEN  =    -62461.10860797
  -Hartree energ DENC   =    -42968.81293397
  -exchange      EXHF   =         0.00000000
  -V(xc)+E(xc)   XCENC  =      3287.06850679
  PAW double counting   =    112305.20587066  -115998.45347727
  entropy T*S    EENTRO =        -0.00000000
  eigenvalues    EBANDS =    -10866.75513605
  atomic energy  EATOM  =    114020.06510763
  Solvation  Ediel_sol  =         0.00000000
  ---------------------------------------------------
  free energy    TOTEN  =      -327.39916273 eV

  energy without entropy =     -327.39916273  energy(sigma->0) =     -327.39916273


--------------------------------------------------------------------------------------------------------




--------------------------------------- Iteration      1(   6)  ---------------------------------------


    POTLOK:  cpu time    0.1195: real time    0.1205
    SETDIJ:  cpu time    0.0127: real time    0.0127
     EDDAV:  cpu time   15.5536: real time   15.6651
       DOS:  cpu time    0.0005: real time    0.0005
    CHARGE:  cpu time    0.6297: real time    0.6330
    MIXING:  cpu time    0.0014: real time    0.0014
    --------------------------------------------
      LOOP:  cpu time   16.3174: real time   16.4332

 eigenvalue-minimisations  :  2560
 total energy-change (2. order) :-0.6978425E-04  (-0.2720793E-04)
 number of electron     688.0000465 magnetization      -0.0000000
 augmentation part      282.2822117 magnetization      -0.0000000

 Broyden mixing:
  rms(total) = 0.35210E-02    rms(broyden)= 0.35207E-02
  rms(prec ) = 0.36705E-02
  weight for this iteration     100.00

 eigenvalues of (default mixing * dielectric matrix)
  average eigenvalue GAMMA=   1.1457
  2.3367  1.6279  0.3447  0.8231  0.5959

 Free energy of the ion-electron system (eV)
  ---------------------------------------------------
  alpha Z        PSCENC =      2355.39150745
  Ewald energy   TEWEN  =    -62461.10860797
  -Hartree energ DENC   =    -42969.27409799
  -exchange      EXHF   =         0.00000000
  -V(xc)+E(xc)   XCENC  =      3287.07612714
  PAW double counting   =    112316.21493072  -116009.21025797
  entropy T*S    EENTRO =        -0.00000000
  eigenvalues    EBANDS =    -10866.55394152
  atomic energy  EATOM  =    114020.06510763
  Solvation  Ediel_sol  =         0.00000000
  ---------------------------------------------------
  free energy    TOTEN  =      -327.39923252 eV

  energy without entropy =     -327.39923252  energy(sigma->0) =     -327.39923252


--------------------------------------------------------------------------------------------------------




--------------------------------------- Iteration      1(   7)  ---------------------------------------


    POTLOK:  cpu time    0.1206: real time    0.1217
    SETDIJ:  cpu time    0.0127: real time    0.0128
     EDDAV:  cpu time   10.7487: real time   10.8325
       DOS:  cpu time    0.0005: real time    0.0005
    CHARGE:  cpu time    0.6348: real time    0.6382
    MIXING:  cpu time    0.0015: real time    0.0023
    --------------------------------------------
      LOOP:  cpu time   11.5188: real time   11.6079

 eigenvalue-minimisations  :  2048
 total energy-change (2. order) :-0.2173294E-04  (-0.4263269E-05)
 number of electron     688.0000465 magnetization      -0.0000000
 augmentation part      282.2812426 magnetization      -0.0000000

 Broyden mixing:
  rms(total) = 0.18405E-02    rms(broyden)= 0.18404E-02
  rms(prec ) = 0.20951E-02
  weight for this iteration     100.00

 eigenvalues of (default mixing * dielectric matrix)
  average eigenvalue GAMMA=   1.1316
  2.5624  1.5795  0.3444  0.9691  0.6217  0.7127

 Free energy of the ion-electron system (eV)
  ---------------------------------------------------
  alpha Z        PSCENC =      2355.39150745
  Ewald energy   TEWEN  =    -62461.10860797
  -Hartree energ DENC   =    -42969.50575661
  -exchange      EXHF   =         0.00000000
  -V(xc)+E(xc)   XCENC  =      3287.08514508
  PAW double counting   =    112320.26641962  -116013.12326635
  entropy T*S    EENTRO =        -0.00000000
  eigenvalues    EBANDS =    -10866.46980309
  atomic energy  EATOM  =    114020.06510763
  Solvation  Ediel_sol  =         0.00000000
  ---------------------------------------------------
  free energy    TOTEN  =      -327.39925425 eV

  energy without entropy =     -327.39925425  energy(sigma->0) =     -327.39925425


--------------------------------------------------------------------------------------------------------




--------------------------------------- Iteration      1(   8)  ---------------------------------------


    POTLOK:  cpu time    0.1201: real time    0.1210
    SETDIJ:  cpu time    0.0126: real time    0.0127
     EDDAV:  cpu time   15.5432: real time   15.6563
       DOS:  cpu time    0.0004: real time    0.0004
    CHARGE:  cpu time    0.6299: real time    0.6329
    MIXING:  cpu time    0.0015: real time    0.0015
    --------------------------------------------
      LOOP:  cpu time   16.3077: real time   16.4249

 eigenvalue-minimisations  :  2560
 total energy-change (2. order) :-0.2082335E-05  (-0.1511660E-05)
 number of electron     688.0000465 magnetization      -0.0000000
 augmentation part      282.2831731 magnetization      -0.0000000

 Broyden mixing:
  rms(total) = 0.79706E-03    rms(broyden)= 0.79695E-03
  rms(prec ) = 0.85403E-03
  weight for this iteration     100.00

 eigenvalues of (default mixing * dielectric matrix)
  average eigenvalue GAMMA=   1.1609
  2.6719  1.5147  1.5147  0.3445  0.8024  0.6333  0.6447

 Free energy of the ion-electron system (eV)
  ---------------------------------------------------
  alpha Z        PSCENC =      2355.39150745
  Ewald energy   TEWEN  =    -62461.10860797
  -Hartree energ DENC   =    -42969.53597843
  -exchange      EXHF   =         0.00000000
  -V(xc)+E(xc)   XCENC  =      3287.08957351
  PAW double counting   =    112319.42980409  -116012.26897743
  entropy T*S    EENTRO =        -0.00000000
  eigenvalues    EBANDS =    -10866.46168519
  atomic energy  EATOM  =    114020.06510763
  Solvation  Ediel_sol  =         0.00000000
  ---------------------------------------------------
  free energy    TOTEN  =      -327.39925633 eV

  energy without entropy =     -327.39925633  energy(sigma->0) =     -327.39925633


--------------------------------------------------------------------------------------------------------




--------------------------------------- Iteration      1(   9)  ---------------------------------------


    POTLOK:  cpu time    0.1162: real time    0.1207
    SETDIJ:  cpu time    0.0127: real time    0.0128
     EDDAV:  cpu time   10.7164: real time   10.7996
       DOS:  cpu time    0.0005: real time    0.0005
    CHARGE:  cpu time    0.6294: real time    0.6326
    MIXING:  cpu time    0.0016: real time    0.0016
    --------------------------------------------
      LOOP:  cpu time   11.4767: real time   11.5678

 eigenvalue-minimisations  :  2048
 total energy-change (2. order) :-0.1615597E-05  (-0.4418314E-06)
 number of electron     688.0000465 magnetization      -0.0000000
 augmentation part      282.2821462 magnetization      -0.0000000

 Broyden mixing:
  rms(total) = 0.66589E-03    rms(broyden)= 0.66585E-03
  rms(prec ) = 0.74387E-03
  weight for this iteration     100.00

 eigenvalues of (default mixing * dielectric matrix)
  average eigenvalue GAMMA=   1.1441
  2.7475  1.6527  1.6527  0.3445  0.8128  0.6924  0.6924  0.5579

 Free energy of the ion-electron system (eV)
  ---------------------------------------------------
  alpha Z        PSCENC =      2355.39150745
  Ewald energy   TEWEN  =    -62461.10860797
  -Hartree energ DENC   =    -42969.65064632
  -exchange      EXHF   =         0.00000000
  -V(xc)+E(xc)   XCENC  =      3287.09337025
  PAW double counting   =    112318.66266275  -116011.50802644
  entropy T*S    EENTRO =        -0.00000000
  eigenvalues    EBANDS =    -10866.34462530
  atomic energy  EATOM  =    114020.06510763
  Solvation  Ediel_sol  =         0.00000000
  ---------------------------------------------------
  free energy    TOTEN  =      -327.39925795 eV

  energy without entropy =     -327.39925795  energy(sigma->0) =     -327.39925795


--------------------------------------------------------------------------------------------------------




--------------------------------------- Iteration      1(  10)  ---------------------------------------


    POTLOK:  cpu time    0.1188: real time    0.1215
    SETDIJ:  cpu time    0.0129: real time    0.0129
     EDDAV:  cpu time   15.6352: real time   15.7483
       DOS:  cpu time    0.0004: real time    0.0004
    CHARGE:  cpu time    0.6289: real time    0.6321
    MIXING:  cpu time    0.0017: real time    0.0017
    --------------------------------------------
      LOOP:  cpu time   16.3979: real time   16.5170

 eigenvalue-minimisations  :  2560
 total energy-change (2. order) :-0.4731555E-06  (-0.1872350E-06)
 number of electron     688.0000465 magnetization       0.0000000
 augmentation part      282.2823176 magnetization       0.0000000

 Broyden mixing:
  rms(total) = 0.23937E-03    rms(broyden)= 0.23933E-03
  rms(prec ) = 0.25458E-03
  weight for this iteration     100.00

 eigenvalues of (default mixing * dielectric matrix)
  average eigenvalue GAMMA=   1.2120
  3.0034  2.3757  1.2617  1.2092  0.3445  0.8025  0.5753  0.6677  0.6677

 Free energy of the ion-electron system (eV)
  ---------------------------------------------------
  alpha Z        PSCENC =      2355.39150745
  Ewald energy   TEWEN  =    -62461.10860797
  -Hartree energ DENC   =    -42969.63650467
  -exchange      EXHF   =         0.00000000
  -V(xc)+E(xc)   XCENC  =      3287.09271772
  PAW double counting   =    112318.14488843  -116010.98136307
  entropy T*S    EENTRO =        -0.00000000
  eigenvalues    EBANDS =    -10866.36700395
  atomic energy  EATOM  =    114020.06510763
  Solvation  Ediel_sol  =         0.00000000
  ---------------------------------------------------
  free energy    TOTEN  =      -327.39925842 eV

  energy without entropy =     -327.39925842  energy(sigma->0) =     -327.39925842


--------------------------------------------------------------------------------------------------------




--------------------------------------- Iteration      1(  11)  ---------------------------------------


    POTLOK:  cpu time    0.1201: real time    0.1209
    SETDIJ:  cpu time    0.0128: real time    0.0129
     EDDAV:  cpu time   15.5695: real time   15.6823
       DOS:  cpu time    0.0005: real time    0.0005
    CHARGE:  cpu time    0.6307: real time    0.6340
    MIXING:  cpu time    0.0017: real time    0.0017
    --------------------------------------------
      LOOP:  cpu time   16.3353: real time   16.4523

 eigenvalue-minimisations  :  2560
 total energy-change (2. order) :-0.1335720E-06  (-0.4882481E-07)
 number of electron     688.0000465 magnetization      -0.0000000
 augmentation part      282.2824318 magnetization      -0.0000000

 Broyden mixing:
  rms(total) = 0.12683E-03    rms(broyden)= 0.12680E-03
  rms(prec ) = 0.13925E-03
  weight for this iteration     100.00

 eigenvalues of (default mixing * dielectric matrix)
  average eigenvalue GAMMA=   1.2331
  3.2417  2.4212  1.3883  1.3883  0.3445  0.9237  0.7622  0.5832  0.6391  0.6391

 Free energy of the ion-electron system (eV)
  ---------------------------------------------------
  alpha Z        PSCENC =      2355.39150745
  Ewald energy   TEWEN  =    -62461.10860797
  -Hartree energ DENC   =    -42969.63672198
  -exchange      EXHF   =         0.00000000
  -V(xc)+E(xc)   XCENC  =      3287.09243715
  PAW double counting   =    112317.92047705  -116010.75514066
  entropy T*S    EENTRO =        -0.00000000
  eigenvalues    EBANDS =    -10866.36831722
  atomic energy  EATOM  =    114020.06510763
  Solvation  Ediel_sol  =         0.00000000
  ---------------------------------------------------
  free energy    TOTEN  =      -327.39925855 eV

  energy without entropy =     -327.39925855  energy(sigma->0) =     -327.39925855


--------------------------------------------------------------------------------------------------------




--------------------------------------- Iteration      1(  12)  ---------------------------------------


    POTLOK:  cpu time    0.1184: real time    0.1206
    SETDIJ:  cpu time    0.0128: real time    0.0128
     EDDAV:  cpu time   15.5220: real time   15.6353
       DOS:  cpu time    0.0004: real time    0.0004
    CHARGE:  cpu time    0.6293: real time    0.6326
    MIXING:  cpu time    0.0024: real time    0.0032
    --------------------------------------------
      LOOP:  cpu time   16.2852: real time   16.4050

 eigenvalue-minimisations  :  2560
 total energy-change (2. order) : 0.1140870E-07  (-0.1504237E-07)
 number of electron     688.0000465 magnetization      -0.0000000
 augmentation part      282.2823123 magnetization      -0.0000000

 Broyden mixing:
  rms(total) = 0.58857E-04    rms(broyden)= 0.58845E-04
  rms(prec ) = 0.62814E-04
  weight for this iteration     100.00

 eigenvalues of (default mixing * dielectric matrix)
  average eigenvalue GAMMA=   1.2849
  3.4802  2.4960  1.9811  1.2502  1.2502  0.3445  0.8564  0.6599  0.6175  0.5992
  0.5992

 Free energy of the ion-electron system (eV)
  ---------------------------------------------------
  alpha Z        PSCENC =      2355.39150745
  Ewald energy   TEWEN  =    -62461.10860797
  -Hartree energ DENC   =    -42969.64411339
  -exchange      EXHF   =         0.00000000
  -V(xc)+E(xc)   XCENC  =      3287.09239983
  PAW double counting   =    112317.90985576  -116010.74413423
  entropy T*S    EENTRO =        -0.00000000
  eigenvalues    EBANDS =    -10866.36127363
  atomic energy  EATOM  =    114020.06510763
  Solvation  Ediel_sol  =         0.00000000
  ---------------------------------------------------
  free energy    TOTEN  =      -327.39925854 eV

  energy without entropy =     -327.39925854  energy(sigma->0) =     -327.39925854


--------------------------------------------------------------------------------------------------------




--------------------------------------- Iteration      1(  13)  ---------------------------------------


    POTLOK:  cpu time    0.1186: real time    0.1196
    SETDIJ:  cpu time    0.0131: real time    0.0132
     EDDAV:  cpu time   10.8035: real time   10.8874
       DOS:  cpu time    0.0005: real time    0.0005
    CHARGE:  cpu time    0.6271: real time    0.6302
    MIXING:  cpu time    0.0018: real time    0.0018
    --------------------------------------------
      LOOP:  cpu time   11.5646: real time   11.6527

 eigenvalue-minimisations  :  2048
 total energy-change (2. order) :-0.6682239E-07  (-0.4256550E-08)
 number of electron     688.0000465 magnetization       0.0000000
 augmentation part      282.2823305 magnetization       0.0000000

 Broyden mixing:
  rms(total) = 0.34352E-04    rms(broyden)= 0.34347E-04
  rms(prec ) = 0.39530E-04
  weight for this iteration     100.00

 eigenvalues of (default mixing * dielectric matrix)
  average eigenvalue GAMMA=   1.2855
  3.6117  2.5828  2.1810  1.2589  1.2589  0.3445  0.9332  0.7666  0.6308  0.6308
  0.5978  0.6287

 Free energy of the ion-electron system (eV)
  ---------------------------------------------------
  alpha Z        PSCENC =      2355.39150745
  Ewald energy   TEWEN  =    -62461.10860797
  -Hartree energ DENC   =    -42969.64344681
  -exchange      EXHF   =         0.00000000
  -V(xc)+E(xc)   XCENC  =      3287.09238303
  PAW double counting   =    112317.87861829  -116010.71315467
  entropy T*S    EENTRO =        -0.00000000
  eigenvalues    EBANDS =    -10866.36166555
  atomic energy  EATOM  =    114020.06510763
  Solvation  Ediel_sol  =         0.00000000
  ---------------------------------------------------
  free energy    TOTEN  =      -327.39925861 eV

  energy without entropy =     -327.39925861  energy(sigma->0) =     -327.39925861


--------------------------------------------------------------------------------------------------------




--------------------------------------- Iteration      1(  14)  ---------------------------------------


    POTLOK:  cpu time    0.1178: real time    0.1209
    SETDIJ:  cpu time    0.0130: real time    0.0131
     EDDAV:  cpu time    5.1399: real time    5.1849
       DOS:  cpu time    0.0005: real time    0.0005
    CHARGE:  cpu time    0.6285: real time    0.6318
    MIXING:  cpu time    0.0018: real time    0.0018
    --------------------------------------------
      LOOP:  cpu time    5.9016: real time    5.9530

 eigenvalue-minimisations  :  1024
 total energy-change (2. order) :-0.1839362E-07  (-0.5432923E-09)
 number of electron     688.0000465 magnetization       0.0000000
 augmentation part      282.2823546 magnetization       0.0000000

 Broyden mixing:
  rms(total) = 0.16735E-04    rms(broyden)= 0.16733E-04
  rms(prec ) = 0.17802E-04
  weight for this iteration     100.00

 eigenvalues of (default mixing * dielectric matrix)
  average eigenvalue GAMMA=   1.3062
  3.6841  2.6249  2.2166  1.4880  1.2781  1.2781  0.3445  0.8707  0.7173  0.6291
  0.6291  0.5874  0.6322

 Free energy of the ion-electron system (eV)
  ---------------------------------------------------
  alpha Z        PSCENC =      2355.39150745
  Ewald energy   TEWEN  =    -62461.10860797
  -Hartree energ DENC   =    -42969.64268187
  -exchange      EXHF   =         0.00000000
  -V(xc)+E(xc)   XCENC  =      3287.09238072
  PAW double counting   =    112317.86240722  -116010.69725845
  entropy T*S    EENTRO =        -0.00000000
  eigenvalues    EBANDS =    -10866.36211336
  atomic energy  EATOM  =    114020.06510763
  Solvation  Ediel_sol  =         0.00000000
  ---------------------------------------------------
  free energy    TOTEN  =      -327.39925863 eV

  energy without entropy =     -327.39925863  energy(sigma->0) =     -327.39925863


--------------------------------------------------------------------------------------------------------




--------------------------------------- Iteration      1(  15)  ---------------------------------------


    POTLOK:  cpu time    0.1194: real time    0.1203
    SETDIJ:  cpu time    0.0129: real time    0.0129
     EDDAV:  cpu time    5.1290: real time    5.1730
       DOS:  cpu time    0.0004: real time    0.0004
    --------------------------------------------
      LOOP:  cpu time    5.2617: real time    5.3067

 eigenvalue-minimisations  :  1024
 total energy-change (2. order) : 0.2779416E-08  (-0.3664188E-09)
 number of electron     688.0000465 magnetization       0.0000000
 augmentation part      282.2823546 magnetization       0.0000000

 Free energy of the ion-electron system (eV)
  ---------------------------------------------------
  alpha Z        PSCENC =      2355.39150745
  Ewald energy   TEWEN  =    -62461.10860797
  -Hartree energ DENC   =    -42969.64232649
  -exchange      EXHF   =         0.00000000
  -V(xc)+E(xc)   XCENC  =      3287.09236470
  PAW double counting   =    112317.87018467  -116010.70498034
  entropy T*S    EENTRO =        -0.00000000
  eigenvalues    EBANDS =    -10866.36250828
  atomic energy  EATOM  =    114020.06510763
  Solvation  Ediel_sol  =         0.00000000
  ---------------------------------------------------
  free energy    TOTEN  =      -327.39925863 eV

  energy without entropy =     -327.39925863  energy(sigma->0) =     -327.39925863


--------------------------------------------------------------------------------------------------------




 average (electrostatic) potential at core
  the test charge radii are     0.9698  0.8297  0.9500
  (the norm of the test charge is              1.0000)
       1 -86.5985       2 -86.5985       3 -86.5985       4 -86.5985       5 -86.5985
       6 -86.5985       7 -86.5985       8 -86.5985       9 -86.5985      10 -86.5985
      11 -86.5985      12 -86.5985      13 -86.5985      14 -86.5985      15 -86.5985
      16 -86.5985      17 -86.5985      18 -86.5985      19 -86.5985      20 -86.5985
      21 -86.5985      22 -86.5985      23 -86.5985      24 -86.5985      25 -86.5985
      26 -86.5985      27 -86.5985      28 -86.5985      29 -86.5985      30 -86.5985
      31 -86.5985      32 -86.5985      33 -80.6732      34 -80.6732      35 -80.6732
      36 -80.6732      37 -80.6732      38 -80.6732      39 -80.6732      40 -80.6732
      41 -80.6732      42 -80.6732      43 -80.6732      44 -80.6732      45 -80.6732
      46 -80.6732      47 -80.6732      48 -80.6732      49 -80.2239      50 -80.2239
      51 -80.2239      52 -80.2239      53 -80.2239      54 -80.2239      55 -80.2239
      56 -80.2239      57 -80.2239      58 -80.2239      59 -80.2239      60 -80.2239
      61 -80.2239      62 -80.2239      63 -80.2239      64 -80.2239
 
 
 
 E-fermi :   4.9623     XC(G=0): -10.4610     alpha+bet :-10.5430


 spin component 1

 k-point     1 :       0.0000    0.0000    0.0000
  band No.  band energies     occupation 
      1     -64.2919      1.00000
      2     -64.2919      1.00000
      3     -64.2918      1.00000
      4     -64.2918      1.00000
      5     -64.2918      1.00000
      6     -64.2918      1.00000
      7     -64.2918      1.00000
      8     -64.2918      1.00000
      9     -64.2577      1.00000
     10     -64.2577      1.00000
     11     -64.2577      1.00000
     12     -64.2577      1.00000
     13     -64.2577      1.00000
     14     -64.2577      1.00000
     15     -64.2577      1.00000
     16     -64.2577      1.00000
     17     -64.2497      1.00000
     18     -64.2497      1.00000
     19     -64.2497      1.00000
     20     -64.2497      1.00000
     21     -64.2497      1.00000
     22     -64.2497      1.00000
     23     -64.2497      1.00000
     24     -64.2497      1.00000
     25     -64.2465      1.00000
     26     -64.2465      1.00000
     27     -64.2465      1.00000
     28     -64.2465      1.00000
     29     -64.2465      1.00000
     30     -64.2465      1.00000
     31     -64.2464      1.00000
     32     -64.2464      1.00000
     33     -64.2335      1.00000
     34     -64.2335      1.00000
     35     -64.2335      1.00000
     36     -64.2335      1.00000
     37     -64.2335      1.00000
     38     -64.2335      1.00000
     39     -64.2335      1.00000
     40     -64.2335      1.00000
     41     -64.2261      1.00000
     42     -64.2261      1.00000
     43     -64.2261      1.00000
     44     -64.2261      1.00000
     45     -64.2261      1.00000
     46     -64.2261      1.00000
     47     -64.2261      1.00000
     48     -64.2261      1.00000
     49     -51.8738      1.00000
     50     -51.8738      1.00000
     51     -51.8738      1.00000
     52     -51.8738      1.00000
     53     -51.8738      1.00000
     54     -51.8738      1.00000
     55     -51.8738      1.00000
     56     -51.8738      1.00000
     57     -51.8534      1.00000
     58     -51.8534      1.00000
     59     -51.8534      1.00000
     60     -51.8534      1.00000
     61     -51.8534      1.00000
     62     -51.8534      1.00000
     63     -51.8534      1.00000
     64     -51.8534      1.00000
     65     -51.8443      1.00000
     66     -51.8443      1.00000
     67     -51.8443      1.00000
     68     -51.8443      1.00000
     69     -51.8443      1.00000
     70     -51.8443      1.00000
     71     -51.8443      1.00000
     72     -51.8443      1.00000
     73     -47.7239      1.00000
     74     -47.7239      1.00000
     75     -47.7239      1.00000
     76     -47.7239      1.00000
     77     -47.7239      1.00000
     78     -47.7239      1.00000
     79     -47.7239      1.00000
     80     -47.7239      1.00000
     81     -47.7234      1.00000
     82     -47.7234      1.00000
     83     -47.7234      1.00000
     84     -47.7234      1.00000
     85     -47.7234      1.00000
     86     -47.7234      1.00000
     87     -47.7234      1.00000
     88     -47.7234      1.00000
     89     -47.7206      1.00000
     90     -47.7206      1.00000
     91     -47.7206      1.00000
     92     -47.7206      1.00000
     93     -47.7206      1.00000
     94     -47.7206      1.00000
     95     -47.7206      1.00000
     96     -47.7206      1.00000
     97      -9.1009      1.00000
     98      -8.4900      1.00000
     99      -8.4886      1.00000
    100      -8.4886      1.00000
    101      -8.4885      1.00000
    102      -8.4885      1.00000
    103      -8.4671      1.00000
    104      -8.1341      1.00000
    105      -8.1335      1.00000
    106      -8.1262      1.00000
    107      -8.1262      1.00000
    108      -8.1262      1.00000
    109      -8.1262      1.00000
    110      -8.1164      1.00000
    111      -8.1146      1.00000
    112      -8.1059      1.00000
    113      -8.1059      1.00000
    114      -8.1058      1.00000
    115      -8.1058      1.00000
    116      -8.1030      1.00000
    117      -8.0857      1.00000
    118      -8.0732      1.00000
    119      -8.0570      1.00000
    120      -7.7603      1.00000
    121      -7.7546      1.00000
    122      -7.7542      1.00000
    123      -7.7482      1.00000
    124      -7.7435      1.00000
    125      -7.7435      1.00000
    126      -7.7433      1.00000
    127      -7.7433      1.00000
    128      -7.7400      1.00000
    129      -2.0709      1.00000
    130      -2.0490      1.00000
    131      -2.0490      1.00000
    132      -2.0464      1.00000
    133      -2.0464      1.00000
    134      -2.0260      1.00000
    135      -1.9800      1.00000
    136      -1.9614      1.00000
    137      -1.9470      1.00000
    138      -1.9037      1.00000
    139      -1.8942      1.00000
    140      -1.8851      1.00000
    141      -1.8851      1.00000
    142      -1.8833      1.00000
    143      -1.8833      1.00000
    144      -1.8736      1.00000
    145      -1.8691      1.00000
    146      -1.8458      1.00000
    147      -1.8458      1.00000
    148      -1.8439      1.00000
    149      -1.8439      1.00000
    150      -1.8162      1.00000
    151      -1.7969      1.00000
    152      -1.7969      1.00000
    153      -1.7963      1.00000
    154      -1.7940      1.00000
    155      -1.7931      1.00000
    156      -1.7931      1.00000
    157      -1.7862      1.00000
    158      -1.7705      1.00000
    159      -1.7640      1.00000
    160      -1.7560      1.00000
    161      -1.7560      1.00000
    162      -1.7554      1.00000
    163      -1.7554      1.00000
    164      -1.7476      1.00000
    165      -1.7473      1.00000
    166      -1.7451      1.00000
    167      -1.7117      1.00000
    168      -1.7107      1.00000
    169      -0.9678      1.00000
    170      -0.9393      1.00000
    171      -0.8600      1.00000
    172      -0.8367      1.00000
    173      -0.7446      1.00000
    174      -0.4939      1.00000
    175      -0.2357      1.00000
    176      -0.2357      1.00000
    177      -0.2345      1.00000
    178      -0.2345      1.00000
    179      -0.1878      1.00000
    180      -0.1874      1.00000
    181      -0.1174      1.00000
    182      -0.0227      1.00000
    183      -0.0227      1.00000
    184      -0.0207      1.00000
    185      -0.0207      1.00000
    186       0.0490      1.00000
    187       0.0496      1.00000
    188       0.1105      1.00000
    189       0.1105      1.00000
    190       0.1106      1.00000
    191       0.1106      1.00000
    192       0.1188      1.00000
    193       0.2095      1.00000
    194       0.2709      1.00000
    195       0.2709      1.00000
    196       0.2734      1.00000
    197       0.2734      1.00000
    198       0.3059      1.00000
    199       0.3303      1.00000
    200       0.6934      1.00000
    201       0.7364      1.00000
    202       0.7423      1.00000
    203       0.7704      1.00000
    204       0.8127      1.00000
    205       0.8127      1.00000
    206       0.8152      1.00000
    207       0.8152      1.00000
    208       0.8802      1.00000
    209       0.8802      1.00000
    210       0.8835      1.00000
    211       0.8835      1.00000
    212       1.0141      1.00000
    213       1.0141      1.00000
    214       1.0149      1.00000
    215       1.0149      1.00000
    216       1.1207      1.00000
[...]
   -.990E-01 0.421E+02 0.375E+01   0.985E-01 -.430E+02 -.380E+01   -.136E-03 0.930E+00 0.479E-01   0.572E-06 -.102E-04 0.113E-05
   -.421E+02 0.990E-01 0.375E+01   0.430E+02 -.985E-01 -.380E+01   -.930E+00 0.136E-03 0.479E-01   0.102E-04 -.572E-06 0.113E-05
   -.421E+02 0.990E-01 0.375E+01   0.430E+02 -.985E-01 -.380E+01   -.930E+00 0.136E-03 0.479E-01   0.102E-04 -.572E-06 0.113E-05
   -.421E+02 0.990E-01 0.375E+01   0.430E+02 -.985E-01 -.380E+01   -.930E+00 0.136E-03 0.479E-01   0.102E-04 -.572E-06 0.113E-05
   -.421E+02 0.990E-01 0.375E+01   0.430E+02 -.985E-01 -.380E+01   -.930E+00 0.136E-03 0.479E-01   0.102E-04 -.572E-06 0.113E-05
   0.421E+02 -.990E-01 0.375E+01   -.430E+02 0.985E-01 -.380E+01   0.930E+00 -.136E-03 0.479E-01   -.102E-04 0.572E-06 0.113E-05
   0.421E+02 -.990E-01 0.375E+01   -.430E+02 0.985E-01 -.380E+01   0.930E+00 -.136E-03 0.479E-01   -.102E-04 0.572E-06 0.113E-05
   0.421E+02 -.990E-01 0.375E+01   -.430E+02 0.985E-01 -.380E+01   0.930E+00 -.136E-03 0.479E-01   -.102E-04 0.572E-06 0.113E-05
   0.421E+02 -.990E-01 0.375E+01   -.430E+02 0.985E-01 -.380E+01   0.930E+00 -.136E-03 0.479E-01   -.102E-04 0.572E-06 0.113E-05
   0.990E-01 -.421E+02 0.375E+01   -.985E-01 0.430E+02 -.380E+01   0.136E-03 -.930E+00 0.479E-01   -.572E-06 0.102E-04 0.113E-05
   0.990E-01 -.421E+02 0.375E+01   -.985E-01 0.430E+02 -.380E+01   0.136E-03 -.930E+00 0.479E-01   -.572E-06 0.102E-04 0.113E-05
   0.990E-01 -.421E+02 0.375E+01   -.985E-01 0.430E+02 -.380E+01   0.136E-03 -.930E+00 0.479E-01   -.572E-06 0.102E-04 0.113E-05
   0.990E-01 -.421E+02 0.375E+01   -.985E-01 0.430E+02 -.380E+01   0.136E-03 -.930E+00 0.479E-01   -.572E-06 0.102E-04 0.113E-05
   -.990E-01 0.421E+02 0.375E+01   0.985E-01 -.430E+02 -.380E+01   -.136E-03 0.930E+00 0.479E-01   0.572E-06 -.102E-04 0.113E-05
   -.990E-01 0.421E+02 0.375E+01   0.985E-01 -.430E+02 -.380E+01   -.136E-03 0.930E+00 0.479E-01   0.572E-06 -.102E-04 0.113E-05
   -.990E-01 0.421E+02 0.375E+01   0.985E-01 -.430E+02 -.380E+01   -.136E-03 0.930E+00 0.479E-01   0.572E-06 -.102E-04 0.113E-05
   -.990E-01 0.421E+02 0.375E+01   0.985E-01 -.430E+02 -.380E+01   -.136E-03 0.930E+00 0.479E-01   0.572E-06 -.102E-04 0.113E-05
   -.102E-06 0.248E-07 -.444E+01   0.848E-13 0.142E-12 0.425E+01   0.681E-25 0.000E+00 0.192E+00   -.103E-12 -.179E-12 -.194E-06
   -.102E-06 0.248E-07 -.444E+01   0.117E-12 0.142E-12 0.425E+01   -.489E-25 0.338E-26 0.192E+00   -.207E-12 -.161E-12 -.194E-06
   -.102E-06 0.248E-07 -.444E+01   0.848E-13 0.192E-12 0.425E+01   0.377E-25 0.968E-26 0.192E+00   -.146E-12 -.905E-13 -.194E-06
   -.102E-06 0.248E-07 -.444E+01   0.882E-13 0.199E-12 0.425E+01   0.323E-25 -.137E-25 0.192E+00   -.155E-12 -.107E-12 -.194E-06
   0.248E-07 -.102E-06 -.444E+01   0.000E+00 0.142E-12 0.425E+01   0.121E-25 -.388E-25 0.192E+00   -.467E-12 -.268E-13 -.194E-06
   0.248E-07 -.102E-06 -.444E+01   0.284E-13 0.284E-13 0.425E+01   0.326E-25 -.323E-25 0.192E+00   -.744E-13 -.785E-14 -.194E-06
   0.248E-07 -.102E-06 -.444E+01   -.284E-13 0.284E-13 0.425E+01   -.137E-25 0.277E-25 0.192E+00   -.513E-12 -.134E-12 -.194E-06
   0.248E-07 -.102E-06 -.444E+01   0.000E+00 0.284E-13 0.425E+01   -.929E-26 0.258E-25 0.192E+00   -.299E-14 -.132E-12 -.194E-06
   -.102E-06 0.248E-07 -.444E+01   -.284E-13 0.826E-13 0.425E+01   0.467E-25 -.706E-26 0.192E+00   -.243E-12 -.825E-12 -.194E-06
   -.102E-06 0.248E-07 -.444E+01   -.284E-13 0.897E-13 0.425E+01   -.706E-25 -.162E-25 0.192E+00   -.326E-13 -.780E-12 -.194E-06
   -.102E-06 0.249E-07 -.444E+01   -.284E-13 0.955E-13 0.425E+01   -.200E-25 0.362E-25 0.192E+00   -.274E-12 0.594E-12 -.194E-06
   -.102E-06 0.248E-07 -.444E+01   -.284E-13 0.955E-13 0.425E+01   0.759E-26 -.136E-25 0.192E+00   0.126E-13 0.492E-12 -.194E-06
   0.248E-07 -.102E-06 -.444E+01   -.111E-12 -.894E-13 0.425E+01   0.128E-25 -.258E-25 0.192E+00   -.254E-13 -.548E-12 -.194E-06
   0.248E-07 -.102E-06 -.444E+01   -.109E-12 -.326E-13 0.425E+01   0.621E-26 0.323E-25 0.192E+00   -.638E-12 -.577E-12 -.194E-06
   0.248E-07 -.102E-06 -.444E+01   -.118E-12 0.298E-13 0.425E+01   0.782E-26 0.649E-26 0.192E+00   0.870E-13 0.405E-12 -.194E-06
   0.248E-07 -.102E-06 -.444E+01   -.872E-13 0.298E-13 0.425E+01   0.244E-25 -.646E-26 0.192E+00   -.671E-12 0.431E-12 -.194E-06
   -.270E-09 -.304E-07 -.357E+01   0.222E-15 0.131E-12 0.336E+01   -.550E-25 -.517E-25 0.215E+00   0.856E-13 -.896E-13 -.958E-05
   -.268E-09 -.304E-07 -.357E+01   0.289E-14 0.128E-12 0.336E+01   0.545E-26 0.646E-26 0.215E+00   -.238E-12 -.670E-14 -.958E-05
   -.270E-09 -.304E-07 -.357E+01   0.357E-13 0.124E-12 0.336E+01   0.192E-25 0.687E-25 0.215E+00   0.229E-13 0.120E-12 -.958E-05
   -.268E-09 -.304E-07 -.357E+01   -.184E-13 0.128E-12 0.336E+01   -.334E-25 -.323E-25 0.215E+00   -.224E-12 0.130E-12 -.958E-05
   -.304E-07 -.271E-09 -.357E+01   0.110E-12 -.355E-13 0.336E+01   0.847E-25 0.323E-25 0.215E+00   -.416E-13 -.182E-12 -.958E-05
   -.304E-07 -.271E-09 -.357E+01   0.114E-12 -.355E-13 0.336E+01   -.405E-25 0.000E+00 0.215E+00   0.971E-13 -.137E-12 -.958E-05
   -.304E-07 -.263E-09 -.357E+01   0.117E-12 -.746E-13 0.336E+01   0.141E-25 0.778E-26 0.215E+00   -.682E-13 0.177E-12 -.958E-05
   -.304E-07 -.214E-09 -.357E+01   0.124E-12 -.462E-13 0.336E+01   0.238E-25 0.646E-26 0.215E+00   0.162E-12 0.147E-12 -.958E-05
   -.269E-09 -.304E-07 -.357E+01   -.711E-14 0.158E-12 0.336E+01   -.512E-25 0.646E-26 0.215E+00   -.240E-12 -.317E-12 -.958E-05
   -.266E-09 -.304E-07 -.357E+01   -.355E-13 0.130E-12 0.336E+01   -.403E-25 -.129E-25 0.215E+00   0.131E-12 -.236E-12 -.958E-05
   -.269E-09 -.304E-07 -.357E+01   -.568E-13 0.146E-12 0.336E+01   0.970E-25 0.129E-25 0.215E+00   -.244E-12 0.377E-12 -.958E-05
   -.266E-09 -.304E-07 -.357E+01   -.284E-13 0.175E-12 0.336E+01   -.638E-25 -.646E-25 0.215E+00   0.948E-13 0.350E-12 -.958E-05
   -.304E-07 -.269E-09 -.357E+01   0.105E-12 -.615E-13 0.336E+01   -.316E-25 -.388E-25 0.215E+00   -.102E-12 -.452E-12 -.958E-05
   -.304E-07 -.307E-09 -.357E+01   0.108E-12 -.541E-13 0.336E+01   0.644E-26 0.194E-25 0.215E+00   0.163E-12 -.438E-12 -.958E-05
   -.304E-07 -.266E-09 -.357E+01   0.127E-12 -.487E-13 0.336E+01   0.499E-25 0.129E-25 0.215E+00   -.970E-13 0.421E-12 -.958E-05
   -.304E-07 -.246E-09 -.357E+01   0.102E-12 -.555E-13 0.336E+01   -.306E-25 -.129E-25 0.215E+00   0.130E-12 0.491E-12 -.958E-05
 -----------------------------------------------------------------------------------------------
   -.297E-06 -.297E-06 -.806E+01   -.267E-12 -.490E-13 -.355E-12   -.133E-14 -.222E-15 0.805E+01   -.387E-11 -.648E-12 -.120E-03
 
 
 POSITION                                       TOTAL-FORCE (eV/Angst)
 -----------------------------------------------------------------------------------
      1.33434      1.32298      1.29470         0.000933     -0.000638     -0.000735
      6.59091      1.35506      1.29470         0.000933     -0.000638     -0.000735
      1.36642      6.57955      1.29470         0.000933     -0.000638     -0.000735
      6.62299      6.61163      1.29470         0.000933     -0.000638     -0.000735
      3.95430      3.96566      1.29470        -0.000933      0.000638     -0.000735
      9.21087      3.99774      1.29470        -0.000933      0.000638     -0.000735
      3.98638      9.22223      1.29470        -0.000933      0.000638     -0.000735
      9.24295      9.25431      1.29470        -0.000933      0.000638     -0.000735
      1.33738      3.93827      9.10565         0.000638     -0.000933     -0.000735
      6.59395      3.97034      9.10565         0.000638     -0.000933     -0.000735
      1.36946      9.19483      9.10565         0.000638     -0.000933     -0.000735
      6.62602      9.22691      9.10565         0.000638     -0.000933     -0.000735
      3.95127      1.35038      9.10565        -0.000638      0.000933     -0.000735
      9.20783      1.38246      9.10565        -0.000638      0.000933     -0.000735
      3.98334      6.60695      9.10565        -0.000638      0.000933     -0.000735
      9.23991      6.63902      9.10565        -0.000638      0.000933     -0.000735
      1.30998      1.32134      6.50200        -0.000933      0.000638     -0.000735
      6.56655      1.35342      6.50200        -0.000933      0.000638     -0.000735
      1.34206      6.57791      6.50200        -0.000933      0.000638     -0.000735
      6.59863      6.60999      6.50200        -0.000933      0.000638     -0.000735
      3.97866      3.96730      6.50200         0.000933     -0.000638     -0.000735
      9.23523      3.99938      6.50200         0.000933     -0.000638     -0.000735
      4.01074      9.22387      6.50200         0.000933     -0.000638     -0.000735
      9.26731      9.25595      6.50200         0.000933     -0.000638     -0.000735
      3.94962      1.32602      3.89835         0.000638     -0.000933     -0.000735
      9.20619      1.35810      3.89835         0.000638     -0.000933     -0.000735
      3.98170      6.58259      3.89835         0.000638     -0.000933     -0.000735
      9.23827      6.61467      3.89835         0.000638     -0.000933     -0.000735
      1.33902      3.96262      3.89835        -0.000638      0.000933     -0.000735
      6.59559      3.99470      3.89835        -0.000638      0.000933     -0.000735
      1.37110      9.21919      3.89835        -0.000638      0.000933     -0.000735
      6.62767      9.25127      3.89835        -0.000638      0.000933     -0.000735
      0.00000      0.00000      5.21345         0.000000      0.000000     -0.002399
      5.25657      0.03208      5.21345         0.000000      0.000000     -0.002399
      0.03208      5.25657      5.21345         0.000000      0.000000     -0.002399
      5.28865      5.28865      5.21345         0.000000      0.000000     -0.002399
      2.62828      0.01604      2.60980         0.000000      0.000000     -0.002399
      7.88485      0.04812      2.60980         0.000000      0.000000     -0.002399
      2.66036      5.27261      2.60980         0.000000      0.000000     -0.002399
      7.91693      5.30468      2.60980         0.000000      0.000000     -0.002399
      2.64432      2.64432      0.00616         0.000000      0.000000     -0.002399
      7.90089      2.67640      0.00616         0.000000      0.000000     -0.002399
      2.67640      7.90089      0.00616         0.000000      0.000000     -0.002399
      7.93297      7.93297      0.00616         0.000000      0.000000     -0.002399
      0.01604      2.62828      7.81710         0.000000      0.000000     -0.002399
      5.27261      2.66036      7.81710         0.000000      0.000000     -0.002399
      0.04812      7.88485      7.81710         0.000000      0.000000     -0.002399
      5.30468      7.91693      7.81710         0.000000      0.000000     -0.002399
      0.00000      0.00000      0.00808         0.000000      0.000000      0.003870
      5.25657      0.03208      0.00808         0.000000      0.000000      0.003870
      0.03208      5.25657      0.00808         0.000000      0.000000      0.003870
      5.28865      5.28865      0.00808         0.000000      0.000000      0.003870
      2.62828      0.01604      7.81903         0.000000      0.000000      0.003870
      7.88485      0.04812      7.81903         0.000000      0.000000      0.003870
      2.66036      5.27261      7.81903         0.000000      0.000000      0.003870
      7.91693      5.30468      7.81903         0.000000      0.000000      0.003870
      2.64432      2.64432      5.21538         0.000000      0.000000      0.003870
      7.90089      2.67640      5.21538         0.000000      0.000000      0.003870
      2.67640      7.90089      5.21538         0.000000      0.000000      0.003870
      7.93297      7.93297      5.21538         0.000000      0.000000      0.003870
      0.01604      2.62828      2.61173         0.000000      0.000000      0.003870
      5.27261      2.66036      2.61173         0.000000      0.000000      0.003870
      0.04812      7.88485      2.61173         0.000000      0.000000      0.003870
      5.30468      7.91693      2.61173         0.000000      0.000000      0.003870
 -----------------------------------------------------------------------------------
    total drift:                               -0.000000     -0.000000     -0.006430


--------------------------------------------------------------------------------------------------------



  FREE ENERGIE OF THE ION-ELECTRON SYSTEM (eV)
  ---------------------------------------------------
  free  energy   TOTEN  =      -327.39925863 eV

  energy  without entropy=     -327.39925863  energy(sigma->0) =     -327.39925863
 


--------------------------------------------------------------------------------------------------------


    POTLOK:  cpu time    0.1266: real time    0.1273


--------------------------------------------------------------------------------------------------------


 writing wavefunctions
     LOOP+:  cpu time  231.3998: real time  334.5127
    4ORBIT:  cpu time    0.0000: real time    0.0000
 


 total charge     
 
# of ion       s       p       d       tot
------------------------------------------
    1        1.312   2.415   0.000   3.727
    2        1.312   2.415   0.000   3.727
    3        1.312   2.415   0.000   3.727
    4        1.312   2.415   0.000   3.727
    5        1.312   2.415   0.000   3.727
    6        1.312   2.415   0.000   3.727
    7        1.312   2.415   0.000   3.727
    8        1.312   2.415   0.000   3.727
    9        1.312   2.415   0.000   3.727
   10        1.312   2.415   0.000   3.727
   11        1.312   2.415   0.000   3.727
   12        1.312   2.415   0.000   3.727
   13        1.312   2.415   0.000   3.727
   14        1.312   2.415   0.000   3.727
   15        1.312   2.415   0.000   3.727
   16        1.312   2.415   0.000   3.727
   17        1.312   2.415   0.000   3.727
   18        1.312   2.415   0.000   3.727
   19        1.312   2.415   0.000   3.727
   20        1.312   2.415   0.000   3.727
   21        1.312   2.415   0.000   3.727
   22        1.312   2.415   0.000   3.727
   23        1.312   2.415   0.000   3.727
   24        1.312   2.415   0.000   3.727
   25        1.312   2.415   0.000   3.727
   26        1.312   2.415   0.000   3.727
   27        1.312   2.415   0.000   3.727
   28        1.312   2.415   0.000   3.727
   29        1.312   2.415   0.000   3.727
   30        1.312   2.415   0.000   3.727
   31        1.312   2.415   0.000   3.727
   32        1.312   2.415   0.000   3.727
   33        0.257   6.203   8.919  15.379
   34        0.257   6.203   8.919  15.379
   35        0.257   6.203   8.919  15.379
   36        0.257   6.203   8.919  15.379
   37        0.257   6.203   8.919  15.379
   38        0.257   6.203   8.919  15.379
   39        0.257   6.203   8.919  15.379
   40        0.257   6.203   8.919  15.379
   41        0.257   6.203   8.919  15.379
   42        0.257   6.203   8.919  15.379
   43        0.257   6.203   8.919  15.379
   44        0.257   6.203   8.919  15.379
   45        0.257   6.203   8.919  15.379
   46        0.257   6.203   8.919  15.379
   47        0.257   6.203   8.919  15.379
   48        0.257   6.203   8.919  15.379
   49        0.348   6.350   5.823  12.521
   50        0.348   6.350   5.823  12.521
   51        0.348   6.350   5.823  12.521
   52        0.348   6.350   5.823  12.521
   53        0.348   6.350   5.823  12.521
   54        0.348   6.350   5.823  12.521
   55        0.348   6.350   5.823  12.521
   56        0.348   6.350   5.823  12.521
   57        0.348   6.350   5.823  12.521
   58        0.348   6.350   5.823  12.521
   59        0.348   6.350   5.823  12.521
   60        0.348   6.350   5.823  12.521
   61        0.348   6.350   5.823  12.521
   62        0.348   6.350   5.823  12.521
   63        0.348   6.350   5.823  12.521
   64        0.348   6.350   5.823  12.521
--------------------------------------------------
tot         51.677 278.118 235.879 565.674
 


 magnetization (x)
 
# of ion       s       p       d       tot
------------------------------------------
    1       -0.000  -0.003   0.000  -0.003
    2       -0.000  -0.003   0.000  -0.003
    3       -0.000  -0.003   0.000  -0.003
    4       -0.000  -0.003   0.000  -0.003
    5       -0.000  -0.003   0.000  -0.003
    6       -0.000  -0.003   0.000  -0.003
    7       -0.000  -0.003   0.000  -0.003
    8       -0.000  -0.003   0.000  -0.003
    9        0.000   0.003   0.000   0.003
   10        0.000   0.003   0.000   0.003
   11        0.000   0.003   0.000   0.003
   12        0.000   0.003   0.000   0.003
   13        0.000   0.003   0.000   0.003
   14        0.000   0.003   0.000   0.003
   15        0.000   0.003   0.000   0.003
   16        0.000   0.003   0.000   0.003
   17       -0.000  -0.003   0.000  -0.003
   18       -0.000  -0.003   0.000  -0.003
   19       -0.000  -0.003   0.000  -0.003
   20       -0.000  -0.003   0.000  -0.003
   21       -0.000  -0.003   0.000  -0.003
   22       -0.000  -0.003   0.000  -0.003
   23       -0.000  -0.003   0.000  -0.003
   24       -0.000  -0.003   0.000  -0.003
   25        0.000   0.003   0.000   0.003
   26        0.000   0.003   0.000   0.003
   27        0.000   0.003   0.000   0.003
   28        0.000   0.003   0.000   0.003
   29        0.000   0.003   0.000   0.003
   30        0.000   0.003   0.000   0.003
   31        0.000   0.003   0.000   0.003
   32        0.000   0.003   0.000   0.003
   33        0.001  -0.000  -0.001  -0.000
   34        0.001  -0.000  -0.001  -0.000
   35        0.001  -0.000  -0.001  -0.000
   36        0.001  -0.000  -0.001  -0.000
   37       -0.001   0.000   0.001   0.000
   38       -0.001   0.000   0.001   0.000
   39       -0.001   0.000   0.001   0.000
   40       -0.001   0.000   0.001   0.000
   41        0.001  -0.000  -0.001  -0.000
   42        0.001  -0.000  -0.001  -0.000
   43        0.001  -0.000  -0.001  -0.000
   44        0.001  -0.000  -0.001  -0.000
   45       -0.001   0.000   0.001   0.000
   46       -0.001   0.000   0.001   0.000
   47       -0.001   0.000   0.001   0.000
   48       -0.001   0.000   0.001   0.000
   49        0.020   0.056   3.672   3.748
   50        0.020   0.056   3.672   3.748
   51        0.020   0.056   3.672   3.748
   52        0.020   0.056   3.672   3.748
   53       -0.020  -0.056  -3.672  -3.748
   54       -0.020  -0.056  -3.672  -3.748
   55       -0.020  -0.056  -3.672  -3.748
   56       -0.020  -0.056  -3.672  -3.748
   57        0.020   0.056   3.672   3.748
   58        0.020   0.056   3.672   3.748
   59        0.020   0.056   3.672   3.748
   60        0.020   0.056   3.672   3.748
   61       -0.020  -0.056  -3.672  -3.748
   62       -0.020  -0.056  -3.672  -3.748
   63       -0.020  -0.056  -3.672  -3.748
   64       -0.020  -0.056  -3.672  -3.748
--------------------------------------------------
tot         -0.000  -0.000   0.000   0.000
 

 total amount of memory used by VASP MPI-rank0   180294. kBytes
=======================================================================

   base      :      30000. kBytes
   nonl-proj :      70819. kBytes
   fftplans  :       4588. kBytes
   grid      :      69719. kBytes
   one-center:       1990. kBytes
   wavefun   :       3178. kBytes
 
  
  
 General timing and accounting informations for this job:
 ========================================================
  
                  Total CPU time used (sec):      264.394
                            User time (sec):      256.593
                          System time (sec):        7.801
                         Elapsed time (sec):      368.973
  
                   Maximum memory used (kb):      506416.
                   Average memory used (kb):           0.
  
                          Minor page faults:       136902
                          Major page faults:         5249
                 Voluntary context switches:         7732
