       N       E                     dE             d eps       ncg     rms          rms(c)
DAV:   1    -0.298423761490E+03   -0.29842E+03   -0.17706E+03 18944   0.243E+02    0.417E+01
DAV:   2    -0.327797102394E+03   -0.29373E+02   -0.29453E+02 13568   0.273E+01    0.170E+01
DAV:   3    -0.328118837067E+03   -0.32173E+00   -0.54708E+00 18944   0.513E+00    0.128E+01
DAV:   4    -0.328100374708E+03    0.18462E-01   -0.76568E-01 14592   0.241E+00    0.106E+01
DAV:   5    -0.328100926113E+03   -0.55141E-03   -0.47468E-02 15104   0.628E-01    0.914E+00
DAV:   6    -0.328100483161E+03    0.44295E-03   -0.37048E-03 16384   0.159E-01    0.736E+00
DAV:   7    -0.328098180371E+03    0.23028E-02   -0.80989E-03 16128   0.276E-01    0.148E+00
DAV:   8    -0.328098212227E+03   -0.31855E-04   -0.35107E-04 13824   0.438E-02    0.996E-01
DAV:   9    -0.328098195954E+03    0.16272E-04   -0.24420E-05 17408   0.118E-02    0.909E-01
DAV:  10    -0.328098142302E+03    0.53652E-04   -0.40300E-04 14080   0.467E-02    0.948E-02
DAV:  11    -0.328098143080E+03   -0.77781E-06   -0.13546E-05 14848   0.705E-03    0.178E-02
DAV:  12    -0.328098143305E+03   -0.22582E-06   -0.13372E-06 21248   0.249E-03    0.371E-02
DAV:  13    -0.328098144018E+03   -0.71233E-06   -0.11616E-06 15360   0.197E-03    0.328E-02
DAV:  14    -0.328098144463E+03   -0.44506E-06   -0.17116E-07 15872   0.556E-04    0.146E-02
DAV:  15    -0.328098144634E+03   -0.17157E-06   -0.10936E-07 11520   0.385E-04    0.101E-02
DAV:  16    -0.328098144736E+03   -0.10156E-06   -0.96056E-08 15616   0.446E-04    0.244E-03
DAV:  17    -0.328098144756E+03   -0.20562E-07   -0.55999E-09 10240   0.119E-04    0.546E-04
DAV:  18    -0.328098144765E+03   -0.88039E-08   -0.33679E-09 11520   0.825E-05
   1 F= -.32809814E+03 E0= -.32809814E+03  d E =-.881447E-31  mag=     0.0000
