 vasp.5.4.4.18Apr17-6-g9f103f2a35 (build Oct 30 2023 17:30:16) complex          
  
 executed on             LinuxIFC date 2024.06.29  18:52:28
 running on  256 total cores
 distrk:  each k-point on  256 cores,    1 groups
 distr:  one band on NCORES_PER_BAND=   1 cores,  256 groups


--------------------------------------------------------------------------------------------------------


 INCAR:
 POTCAR:    PAW_PBE S 06Sep2000                   
 POTCAR:     PAW_PBE Cu_pv 06Sep2000              
 POTCAR:     PAW_PBE Fe_pv 02Aug2007              

 ----------------------------------------------------------------------------- 
|                                                                             |
|           W    W    AA    RRRRR   N    N  II  N    N   GGGG   !!!           |
|           W    W   A  A   R    R  NN   N  II  NN   N  G    G  !!!           |
|           W    W  A    A  R    R  N N  N  II  N N  N  G       !!!           |
|           W WW W  AAAAAA  RRRRR   N  N N  II  N  N N  G  GGG   !            |
|           WW  WW  A    A  R   R   N   NN  II  N   NN  G    G                |
|           W    W  A    A  R    R  N    N  II  N    N   GGGG   !!!           |
|                                                                             |
|      For optimal performance we recommend to set                            |
|        NCORE= 4 - approx SQRT( number of cores)                             |
|      NCORE specifies how many cores store one orbital (NPAR=cpu/NCORE).     |
|      This setting can  greatly improve the performance of VASP for DFT.     |
|      The default,   NCORE=1            might be grossly inefficient         |
|      on modern multi-core architectures or massively parallel machines.     |
|      Do your own testing !!!!                                               |
|      Unfortunately you need to use the default for GW and RPA calculations. |
|      (for HF NCORE is supported but not extensively tested yet)             |
|                                                                             |
 ----------------------------------------------------------------------------- 

 POTCAR:    PAW_PBE S 06Sep2000                   
   SHA256 =  0fc7481fb0695f01bdc6462160264c5c84044ae9ec85a907d398b887a2bc3132 S/
   COPYR  = (c) Copyright 06Sep2000 Georg Kresse                                
   COPYR  = This file is part of the software VASP. Any use, copying, and all ot
   COPYR  = If you do not have a valid VASP license, you may not use, copy or di
   VRHFIN =S : s2p4                                                             
   LEXCH  = PE                                                                  
   EATOM  =   276.8230 eV,   20.3459 Ry                                         
                                                                                
   TITEL  = PAW_PBE S 06Sep2000                                                 
   LULTRA =        F    use ultrasoft PP ?                                      
   IUNSCR =        1    unscreen: 0-lin 1-nonlin 2-no                           
   RPACOR =    1.500    partial core radius                                     
   POMASS =   32.066; ZVAL   =    6.000    mass and valenz                      
   RCORE  =    1.900    outmost cutoff radius                                   
   RWIGS  =    2.200; RWIGS  =    1.164    wigner-seitz radius (au A)           
   ENMAX  =  258.689; ENMIN  =  194.016 eV                                      
   ICORE  =        2    local potential                                         
   LCOR   =        T    correct aug charges                                     
   LPAW   =        T    paw PP                                                  
   EAUG   =  335.092                                                            
   DEXC   =    0.000                                                            
   RMAX   =    1.942    core radius for proj-oper                               
   RAUG   =    1.300    factor for augmentation sphere                          
   RDEP   =    1.954    radius for radial grids                                 
   RDEPT  =    1.744    core radius for aug-charge                              
                                                                                
   Atomic configuration                                                         
    6 entries                                                                   
     n  l   j            E        occ.                                          
     1  0  0.50     -2405.8406   2.0000                                         
     2  0  0.50      -211.7007   2.0000                                         
     2  1  1.50      -156.4958   6.0000                                         
     3  0  0.50       -17.2562   2.0000                                         
     3  1  0.50        -7.0085   4.0000                                         
     3  2  1.50        -6.8029   0.0000                                         
   Description                                                                  
     l       E           TYP  RCUT    TYP  RCUT                                 
     0    -17.2561641     23  1.900                                             
     0    -15.8743224     23  1.900                                             
     1     -7.0085400     23  1.900                                             
     1     -2.7779785     23  1.900                                             
     2     -6.8029130     23  1.900                                             
  local pseudopotential read in
  partial core-charges read in
  partial kinetic energy density read in
  atomic valenz-charges read in
  non local Contribution for L=           0  read in
    real space projection operators read in
  non local Contribution for L=           0  read in
    real space projection operators read in
  non local Contribution for L=           1  read in
    real space projection operators read in
  non local Contribution for L=           1  read in
    real space projection operators read in
    PAW grid and wavefunctions read in
 
   number of l-projection  operators is LMAX  =           4
   number of lm-projection operators is LMMAX =           8
 
 POTCAR:     PAW_PBE Cu_pv 06Sep2000              
   SHA256 =  cb7b504e2ea725fe1f25c85a9ac77d4012ce94cd394135b722c4e25ec297f1cb Cu
   COPYR  = (c) Copyright 06Sep2000 Georg Kresse                                
   COPYR  = This file is part of the software VASP. Any use, copying, and all ot
   COPYR  = If you do not have a valid VASP license, you may not use, copy or di
   VRHFIN =Cu: d10 p1                                                           
   LEXCH  = PE                                                                  
   EATOM  =  4120.1201 eV,  302.8203 Ry                                         
                                                                                
   TITEL  = PAW_PBE Cu_pv 06Sep2000                                             
   LULTRA =        F    use ultrasoft PP ?                                      
   IUNSCR =        1    unscreen: 0-lin 1-nonlin 2-no                           
   RPACOR =    1.500    partial core radius                                     
   POMASS =   63.546; ZVAL   =   17.000    mass and valenz                      
   RCORE  =    2.000    outmost cutoff radius                                   
   RWIGS  =    2.000; RWIGS  =    1.058    wigner-seitz radius (au A)           
   ENMAX  =  368.648; ENMIN  =  276.486 eV                                      
   RCLOC  =    1.304    cutoff for local pot                                    
   LCOR   =        T    correct aug charges                                     
   LPAW   =        T    paw PP                                                  
   EAUG   =  758.233                                                            
   DEXC   =    0.000                                                            
   RMAX   =    2.046    core radius for proj-oper                               
   RAUG   =    1.300    factor for augmentation sphere                          
   RDEP   =    2.025    radius for radial grids                                 
   RDEPT  =    1.558    core radius for aug-charge                              
                                                                                
   Atomic configuration                                                         
    8 entries                                                                   
     n  l   j            E        occ.                                          
     1  0  0.50     -8850.2467   2.0000                                         
     2  0  0.50     -1062.3498   2.0000                                         
     2  1  1.50      -916.8226   6.0000                                         
     3  0  0.50      -114.6929   2.0000                                         
     3  1  1.50       -72.1325   6.0000                                         
     3  2  2.50        -5.0394  10.0000                                         
     4  0  0.50        -4.6097   1.0000                                         
     4  3  2.50        -1.3606   0.0000                                         
   Description                                                                  
     l       E           TYP  RCUT    TYP  RCUT                                 
     1    -72.1324777     23  1.700                                             
     1     -1.3605826     23  1.700                                             
     2     -5.0393776     23  2.000                                             
     2     -6.3999602     23  2.000                                             
     0     -4.6097062     23  1.800                                             
     0     14.1620818     23  1.800                                             
  local pseudopotential read in
  partial core-charges read in
  partial kinetic energy density read in
  atomic valenz-charges read in
  non local Contribution for L=           1  read in
    real space projection operators read in
  non local Contribution for L=           1  read in
    real space projection operators read in
  non local Contribution for L=           2  read in
    real space projection operators read in
  non local Contribution for L=           2  read in
    real space projection operators read in
  non local Contribution for L=           0  read in
    real space projection operators read in
  non local Contribution for L=           0  read in
    real space projection operators read in
    PAW grid and wavefunctions read in
 
   number of l-projection  operators is LMAX  =           6
   number of lm-projection operators is LMMAX =          18
 
 POTCAR:     PAW_PBE Fe_pv 02Aug2007              
   SHA256 =  5d22e414b1f82158bf2c7ecb8b97b28fd0923e48cadc1c3bf74d524558f5dd32 Fe
   COPYR  = (c) Copyright 02Aug2007 Georg Kresse                                
   COPYR  = This file is part of the software VASP. Any use, copying, and all ot
   COPYR  = If you do not have a valid VASP license, you may not use, copy or di
   VRHFIN =Fe:  3pd7s1                                                          
   LEXCH  = PE                                                                  
   EATOM  =  2457.4239 eV,  180.6156 Ry                                         
                                                                                
   TITEL  = PAW_PBE Fe_pv 02Aug2007                                             
   LULTRA =        F    use ultrasoft PP ?                                      
   IUNSCR =        1    unscreen: 0-lin 1-nonlin 2-no                           
   RPACOR =    1.750    partial core radius                                     
   POMASS =   55.847; ZVAL   =   14.000    mass and valenz                      
   RCORE  =    2.200    outmost cutoff radius                                   
   RWIGS  =    2.200; RWIGS  =    1.164    wigner-seitz radius (au A)           
   ENMAX  =  293.238; ENMIN  =  219.928 eV                                      
   ICORE  =        3    local potential                                         
   LCOR   =        T    correct aug charges                                     
   LPAW   =        T    paw PP                                                  
   EAUG   =  578.342                                                            
   DEXC   =    0.000                                                            
   RMAX   =    2.249    core radius for proj-oper                               
   RAUG   =    1.300    factor for augmentation sphere                          
   RDEP   =    2.296    radius for radial grids                                 
   RDEPT  =    1.766    core radius for aug-charge                              
                                                                                
   Atomic configuration                                                         
    8 entries                                                                   
     n  l   j            E        occ.                                          
     1  0  0.50     -6993.8440   2.0000                                         
     2  0  0.50      -814.6047   2.0000                                         
     2  1  1.50      -693.3689   6.0000                                         
     3  0  0.50       -89.4732   2.0000                                         
     3  1  1.50       -55.6373   6.0000                                         
     3  2  2.50        -3.8151   7.0000                                         
     4  0  0.50        -4.2551   1.0000                                         
     4  3  2.50        -1.3606   0.0000                                         
   Description                                                                  
     l       E           TYP  RCUT    TYP  RCUT                                 
     1    -55.6372668     23  2.000                                             
     1     -5.4423304     23  2.000                                             
     2     -3.8151096     23  2.200                                             
     2     -5.1756922     23  2.200                                             
     0     -4.2550951     23  2.200                                             
     0     27.2116520     23  2.200                                             
     3     -1.3605826     23  2.200                                             
  local pseudopotential read in
  partial core-charges read in
  partial kinetic energy density read in
  atomic valenz-charges read in
  non local Contribution for L=           1  read in
    real space projection operators read in
  non local Contribution for L=           1  read in
    real space projection operators read in
  non local Contribution for L=           2  read in
    real space projection operators read in
  non local Contribution for L=           2  read in
    real space projection operators read in
  non local Contribution for L=           0  read in
    real space projection operators read in
  non local Contribution for L=           0  read in
    real space projection operators read in
    PAW grid and wavefunctions read in
 
   number of l-projection  operators is LMAX  =           6
   number of lm-projection operators is LMMAX =          18
 

 ----------------------------------------------------------------------------- 
|                                                                             |
|  ADVICE TO THIS USER RUNNING 'VASP/VAMP'   (HEAR YOUR MASTER'S VOICE ...):  |
|                                                                             |
|      You have a (more or less) 'large supercell' and for larger cells       |
|      it might be more efficient to use real space projection opertators     |
|      So try LREAL= Auto  in the INCAR   file.                               |
|      Mind:          For very  accurate calculation you might also keep the  |
|      reciprocal projection scheme          (i.e. LREAL=.FALSE.)             |
|                                                                             |
 ----------------------------------------------------------------------------- 


 ----------------------------------------------------------------------------- 
|                                                                             |
|  ADVICE TO THIS USER RUNNING 'VASP/VAMP'   (HEAR YOUR MASTER'S VOICE ...):  |
|                                                                             |
|      You enforced a specific xc-type in the INCAR file,                     |
|      a different type was found on the POTCAR file                          |
|          I HOPE YOU KNOW, WHAT YOU ARE  DOING                               |
|                                                                             |
 ----------------------------------------------------------------------------- 

  PAW_PBE S 06Sep2000                   :
 energy of atom  1       EATOM= -276.8230
 kinetic energy error for atom=    0.0007 (will be added to EATOM!!)
   PAW_PBE Cu_pv 06Sep2000              :
 energy of atom  2       EATOM=-4120.1201
 kinetic energy error for atom=    0.0094 (will be added to EATOM!!)
   PAW_PBE Fe_pv 02Aug2007              :
 energy of atom  3       EATOM=-2457.4239
 kinetic energy error for atom=    0.0025 (will be added to EATOM!!)
 
 
 POSCAR: Fe16 Cu16 S32                           
  positions in direct lattice
  No initial velocities read in
 exchange correlation table for  LEXCH =       14
   RHO(1)=    0.500       N(1)  =     2000
   RHO(2)=  100.500       N(2)  =     4000
 


--------------------------------------------------------------------------------------------------------


 ion  position               nearest neighbor table
   1  0.126  0.125  0.124-  37 2.26  41 2.26  61 2.27  49 2.28
   2  0.626  0.125  0.124-  38 2.26  42 2.26  62 2.27  50 2.28
   3  0.126  0.625  0.124-  39 2.26  43 2.26  63 2.27  51 2.28
   4  0.626  0.625  0.124-  40 2.26  44 2.26  64 2.27  52 2.28
   5  0.374  0.375  0.124-  39 2.26  41 2.26  62 2.27  52 2.28
   6  0.874  0.375  0.124-  40 2.26  42 2.26  61 2.27  51 2.28
   7  0.374  0.875  0.124-  37 2.26  43 2.26  64 2.27  50 2.28
   8  0.874  0.875  0.124-  38 2.26  44 2.26  63 2.27  49 2.28
   9  0.125  0.374  0.874-  41 2.26  45 2.26  51 2.27  55 2.28
  10  0.625  0.374  0.874-  42 2.26  46 2.26  52 2.27  56 2.28
  11  0.125  0.874  0.874-  43 2.26  47 2.26  49 2.27  53 2.28
  12  0.625  0.874  0.874-  44 2.26  48 2.26  50 2.27  54 2.28
  13  0.375  0.126  0.874-  41 2.26  46 2.26  50 2.27  53 2.28
  14  0.875  0.126  0.874-  42 2.26  45 2.26  49 2.27  54 2.28
  15  0.375  0.626  0.874-  43 2.26  48 2.26  52 2.27  55 2.28
  16  0.875  0.626  0.874-  44 2.26  47 2.26  51 2.27  56 2.28
  17  0.124  0.125  0.624-  45 2.26  33 2.26  53 2.27  57 2.28
  18  0.624  0.125  0.624-  46 2.26  34 2.26  54 2.27  58 2.28
  19  0.124  0.625  0.624-  47 2.26  35 2.26  55 2.27  59 2.28
  20  0.624  0.625  0.624-  48 2.26  36 2.26  56 2.27  60 2.28
  21  0.376  0.375  0.624-  46 2.26  36 2.26  55 2.27  57 2.28
  22  0.876  0.375  0.624-  45 2.26  35 2.26  56 2.27  58 2.28
  23  0.376  0.875  0.624-  48 2.26  34 2.26  53 2.27  59 2.28
  24  0.876  0.875  0.624-  47 2.26  33 2.26  54 2.27  60 2.28
  25  0.375  0.124  0.374-  34 2.26  37 2.26  57 2.27  62 2.28
  26  0.875  0.124  0.374-  33 2.26  38 2.26  58 2.27  61 2.28
  27  0.375  0.624  0.374-  36 2.26  39 2.26  59 2.27  64 2.28
  28  0.875  0.624  0.374-  35 2.26  40 2.26  60 2.27  63 2.28
  29  0.125  0.376  0.374-  35 2.26  39 2.26  57 2.27  61 2.28
  30  0.625  0.376  0.374-  36 2.26  40 2.26  58 2.27  62 2.28
  31  0.125  0.876  0.374-  33 2.26  37 2.26  59 2.27  63 2.28
  32  0.625  0.876  0.374-  34 2.26  38 2.26  60 2.27  64 2.28
  33  0.000  0.000  0.501-  26 2.26  31 2.26  17 2.26  24 2.26
  34  0.500  0.000  0.501-  25 2.26  32 2.26  18 2.26  23 2.26
  35  0.000  0.500  0.501-  28 2.26  29 2.26  19 2.26  22 2.26
  36  0.500  0.500  0.501-  27 2.26  30 2.26  20 2.26  21 2.26
  37  0.250  0.000  0.251-   1 2.26   7 2.26  25 2.26  31 2.26
  38  0.750  0.000  0.251-   2 2.26   8 2.26  26 2.26  32 2.26
  39  0.250  0.500  0.251-   3 2.26   5 2.26  27 2.26  29 2.26
  40  0.750  0.500  0.251-   4 2.26   6 2.26  28 2.26  30 2.26
  41  0.250  0.250  0.001-   9 2.26  13 2.26   1 2.26   5 2.26
  42  0.750  0.250  0.001-  10 2.26  14 2.26   2 2.26   6 2.26
  43  0.250  0.750  0.001-  11 2.26  15 2.26   3 2.26   7 2.26
  44  0.750  0.750  0.001-  12 2.26  16 2.26   4 2.26   8 2.26
  45  0.000  0.250  0.751-  17 2.26  22 2.26   9 2.26  14 2.26
  46  0.500  0.250  0.751-  18 2.26  21 2.26  10 2.26  13 2.26
  47  0.000  0.750  0.751-  19 2.26  24 2.26  11 2.26  16 2.26
  48  0.500  0.750  0.751-  20 2.26  23 2.26  12 2.26  15 2.26
  49  0.000  0.000  0.001-  11 2.27  14 2.27   1 2.28   8 2.28
  50  0.500  0.000  0.001-  12 2.27  13 2.27   2 2.28   7 2.28
  51  0.000  0.500  0.001-   9 2.27  16 2.27   3 2.28   6 2.28
  52  0.500  0.500  0.001-  10 2.27  15 2.27   4 2.28   5 2.28
  53  0.250  0.000  0.751-  17 2.27  23 2.27  11 2.28  13 2.28
  54  0.750  0.000  0.751-  18 2.27  24 2.27  12 2.28  14 2.28
  55  0.250  0.500  0.751-  19 2.27  21 2.27   9 2.28  15 2.28
  56  0.750  0.500  0.751-  20 2.27  22 2.27  10 2.28  16 2.28
  57  0.250  0.250  0.501-  25 2.27  29 2.27  17 2.28  21 2.28
  58  0.750  0.250  0.501-  26 2.27  30 2.27  18 2.28  22 2.28
  59  0.250  0.750  0.501-  27 2.27  31 2.27  19 2.28  23 2.28
  60  0.750  0.750  0.501-  28 2.27  32 2.27  20 2.28  24 2.28
  61  0.000  0.250  0.251-   1 2.27   6 2.27  26 2.28  29 2.28
  62  0.500  0.250  0.251-   2 2.27   5 2.27  25 2.28  30 2.28
  63  0.000  0.750  0.251-   3 2.27   8 2.27  28 2.28  31 2.28
  64  0.500  0.750  0.251-   4 2.27   7 2.27  27 2.28  32 2.28
 
  LATTYP: Found a base centered orthorhombic cell.
 ALAT       =    14.7500296667
 B/A-ratio  =     1.0158174915
 C/A-ratio  =     0.7061290882
  
  Lattice vectors:
  
 A1 = (  10.5123330000,   0.0824870000,   0.0000000000)
 A2 = (  -0.0824870000, -10.5123330000,   0.0000000000)
 A3 = (   0.0000000000,   0.0000000000, -10.4154250000)


Analysis of symmetry for initial positions (statically):
=====================================================================
 Subroutine PRICEL returns following result:
 
  LATTYP: Found a face centered orthorhombic cell.
 ALAT       =     7.3750148333
 B/A-ratio  =     1.0158174915
 C/A-ratio  =     1.4122581765
  
  Lattice vectors:
  
 A1 = (  -2.6487050000,  -2.6487050000,   5.2077125000)
 A2 = (  -2.6074615000,   2.6074615000,   5.2077125000)
 A3 = (  -5.2561665000,  -0.0412435000,   0.0000000000)
 
   8 primitive cells build up your supercell.
 

 Routine SETGRP: Setting up the symmetry group for a 
 base centered orthorhombic supercell.


 Subroutine GETGRP returns: Found  4 space group operations
 (whereof  2 operations were pure point group operations)
 out of a pool of  8 trial point group operations.


The static configuration has the point symmetry C_2 .
 The point group associated with its full space group is C_2v.


Analysis of symmetry for dynamics (positions and initial velocities):
=====================================================================
 Subroutine PRICEL returns following result:
 
  LATTYP: Found a face centered orthorhombic cell.
 ALAT       =     7.3750148333
 B/A-ratio  =     1.0158174915
 C/A-ratio  =     1.4122581765
  
  Lattice vectors:
  
 A1 = (  -2.6487050000,  -2.6487050000,   5.2077125000)
 A2 = (  -2.6074615000,   2.6074615000,   5.2077125000)
 A3 = (  -5.2561665000,  -0.0412435000,   0.0000000000)
 
   8 primitive cells build up your supercell.
 

 Routine SETGRP: Setting up the symmetry group for a 
 base centered orthorhombic supercell.


 Subroutine GETGRP returns: Found  4 space group operations
 (whereof  2 operations were pure point group operations)
 out of a pool of  8 trial point group operations.


The dynamic configuration has the point symmetry C_2 .
 The point group associated with its full space group is C_2v.


Analysis of structural, dynamic, and magnetic symmetry:
=====================================================================
 Subroutine PRICEL returns following result:
 
  LATTYP: Found a face centered orthorhombic cell.
 ALAT       =     7.3750148333
 B/A-ratio  =     1.0158174915
 C/A-ratio  =     1.4122581765
  
  Lattice vectors:
  
 A1 = (  -2.6487050000,  -2.6487050000,   5.2077125000)
 A2 = (  -2.6074615000,   2.6074615000,   5.2077125000)
 A3 = (  -5.2561665000,  -0.0412435000,   0.0000000000)
 
   8 primitive cells build up your supercell.
 

 Routine SETGRP: Setting up the symmetry group for a 
 base centered orthorhombic supercell.


 Subroutine GETGRP returns: Found  4 space group operations
 (whereof  2 operations were pure point group operations)
 out of a pool of  8 trial point group operations.


The magnetic configuration has the point symmetry C_2 .
 The point group associated with its full space group is C_2v.


 Subroutine INISYM returns: Found  4 space group operations
 (whereof  2 operations are pure point group operations),
 and found     8 'primitive' translations

 
 
 KPOINTS: Automatic mesh                          

Automatic generation of k-mesh.
Space group operators:
 irot       det(A)        alpha          n_x          n_y          n_z        tau_x        tau_y        tau_z
    1     1.000000     0.000001     1.000000     0.000000     0.000000     0.000000     0.000000     0.000000
    2     1.000000   180.000000     0.000000     0.000000     1.000000     0.000000     0.000000     0.000000
    3    -1.000000   179.999999     0.707107     0.707107     0.000000    -0.750000     0.000000     0.750000
    4    -1.000000   179.999999     0.707107    -0.707107     0.000000    -0.750000     0.000000     0.750000
 
 Subroutine IBZKPT returns following result:
 ===========================================
 
 Found      6 irreducible k-points:
 
 Following reciprocal coordinates:
            Coordinates               Weight
  0.000000  0.000000  0.000000      1.000000
  0.500000  0.000000  0.000000      2.000000
  0.500000  0.500000  0.000000      1.000000
  0.000000  0.000000  0.500000      1.000000
  0.500000  0.000000  0.500000      2.000000
  0.500000  0.500000  0.500000      1.000000
 
 Following cartesian coordinates:
            Coordinates               Weight
  0.000000  0.000000  0.000000      1.000000
  0.047566 -0.000373  0.000000      2.000000
  0.047193  0.047193  0.000000      1.000000
  0.000000  0.000000  0.048006      1.000000
  0.047566 -0.000373  0.048006      2.000000
  0.047193  0.047193  0.048006      1.000000
 
 
 Subroutine IBZKPT_HF returns following result:
 ==============================================
 
 Found      8 k-points in 1st BZ
 the following      8 k-points will be used (e.g. in the exchange kernel)
 Following reciprocal coordinates:   # in IRBZ
  0.000000  0.000000  0.000000    0.12500000   1 t-inv F
  0.500000  0.000000  0.000000    0.12500000   2 t-inv F
  0.500000  0.500000  0.000000    0.12500000   3 t-inv F
  0.000000  0.000000  0.500000    0.12500000   4 t-inv F
  0.500000  0.000000  0.500000    0.12500000   5 t-inv F
  0.500000  0.500000  0.500000    0.12500000   6 t-inv F
  0.000000 -0.500000  0.000000    0.12500000   2 t-inv F spinflp
  0.000000 -0.500000  0.500000    0.12500000   5 t-inv F spinflp


--------------------------------------------------------------------------------------------------------




 Dimension of arrays:
   k-points           NKPTS =      6   k-points in BZ     NKDIM =      6   number of bands    NBANDS=    512
   number of dos      NEDOS =    301   number of ions     NIONS =     64
   non local maximal  LDIM  =      6   non local SUM 2l+1 LMDIM =     18
   total plane-waves  NPLWV = 829440
   max r-space proj   IRMAX =      1   max aug-charges    IRDMAX=  22902
   dimension x,y,z NGX =    96 NGY =   96 NGZ =   90
   dimension x,y,z NGXF=   192 NGYF=  192 NGZF=  180
   support grid    NGXF=   192 NGYF=  192 NGZF=  180
   ions per type =              32  16  16
   NGX,Y,Z   is equivalent  to a cutoff of  15.18, 15.18, 14.37 a.u.
   NGXF,Y,Z  is equivalent  to a cutoff of  30.36, 30.36, 28.73 a.u.

 SYSTEM =  CuFeS2                                  
 POSCAR =  Fe16 Cu16 S32                           

 Startparameter for this run:
   NWRITE =      2    write-flag & timer
   PREC   = accura    normal or accurate (medium, high low for compatibility)
   ISTART =      1    job   : 0-new  1-cont  2-samecut
   ICHARG =      1    charge: 1-file 2-atom 10-const
   ISPIN  =      2    spin polarized calculation?
   LNONCOLLINEAR =      F non collinear calculations
   LSORBIT =      F    spin-orbit coupling
   INIWAV =      1    electr: 0-lowe 1-rand  2-diag
   LASPH  =      F    aspherical Exc in radial PAW
   METAGGA=      F    non-selfconsistent MetaGGA calc.

 Electronic Relaxation 1
   ENCUT  =  700.0 eV  51.45 Ry    7.17 a.u.  22.68 22.68 22.47*2*pi/ulx,y,z
   ENINI  =  700.0     initial cutoff
   ENAUG  =  758.2 eV  augmentation charge cutoff
   NELM   =    500;   NELMIN=  2; NELMDL=  0     # of ELM steps 
   EDIFF  = 0.1E-07   stopping-criterion for ELM
   LREAL  =      F    real-space projection
   NLSPLINE    = F    spline interpolate recip. space projectors
   LCOMPAT=      F    compatible to vasp.4.4
   GGA_COMPAT  = T    GGA compatible to vasp.4.4-vasp.4.6
   LMAXPAW     = -100 max onsite density
   LMAXMIX     =    4 max onsite mixed and CHGCAR
   VOSKOWN=      0    Vosko Wilk Nusair interpolation
   ROPT   =    0.00000   0.00000   0.00000
 Ionic relaxation
   EDIFFG = -.1E-04   stopping-criterion for IOM
   NSW    =      0    number of steps for IOM
   NBLOCK =      1;   KBLOCK =      1    inner block; outer block 
   IBRION =     -1    ionic relax: 0-MD 1-quasi-New 2-CG
   NFREE  =      0    steps in history (QN), initial steepest desc. (CG)
   ISIF   =      2    stress and relaxation
   IWAVPR =     10    prediction:  0-non 1-charg 2-wave 3-comb
   ISYM   =      2    0-nonsym 1-usesym 2-fastsym
   LCORR  =      T    Harris-Foulkes like correction to forces

   POTIM  = 0.5000    time-step for ionic-motion
   TEIN   =    0.0    initial temperature
   TEBEG  =    0.0;   TEEND  =   0.0 temperature during run
   SMASS  =  -3.00    Nose mass-parameter (am)
   estimated Nose-frequenzy (Omega)   =  0.10E-29 period in steps =****** mass=  -0.253E-26a.u.
   SCALEE = 1.0000    scale energy and forces
   NPACO  =    256;   APACO  = 16.0  distance and # of slots for P.C.
   PSTRESS=    0.0 pullay stress

  Mass of Ions in am
   POMASS =  32.07 63.55 55.85
  Ionic Valenz
   ZVAL   =   6.00 17.00 14.00
  Atomic Wigner-Seitz radii
   RWIGS  =  -1.00 -1.00 -1.00
  virtual crystal weights 
   VCA    =   1.00  1.00  1.00
   NELECT =     688.0000    total number of electrons
   NUPDOWN=      -1.0000    fix difference up-down

 DOS related values:
   EMIN   =  10.00;   EMAX   =-10.00  energy-range for DOS
   EFERMI =   0.00
   ISMEAR =     0;   SIGMA  =   0.03  broadening in eV -4-tet -1-fermi 0-gaus

 Electronic relaxation 2 (details)
   IALGO  =     38    algorithm
   LDIAG  =      T    sub-space diagonalisation (order eigenvalues)
   LSUBROT=      F    optimize rotation matrix (better conditioning)
   TURBO    =      0    0=normal 1=particle mesh
   IRESTART =      0    0=no restart 2=restart with 2 vectors
   NREBOOT  =      0    no. of reboots
   NMIN     =      0    reboot dimension
   EREF     =   0.00    reference energy to select bands
   IMIX   =      4    mixing-type and parameters
     AMIX     =   0.40;   BMIX     =  1.00
     AMIX_MAG =   1.60;   BMIX_MAG =  1.00
     AMIN     =   0.10
     WC   =   100.;   INIMIX=   1;  MIXPRE=   1;  MAXMIX= -45

 Intra band minimization:
   WEIMIN = 0.0000     energy-eigenvalue tresh-hold
   EBREAK =  0.49E-11  absolut break condition
   DEPER  =   0.30     relativ break condition  

   TIME   =   0.40     timestep for ELM

  volume/ion in A,a.u.               =      17.98       121.36
  Fermi-wavevector in a.u.,A,eV,Ry     =   1.379076  2.606075 25.876243  1.901850
  Thomas-Fermi vector in A             =   2.504079
 
 Write flags
   LWAVE        =      T    write WAVECAR
   LDOWNSAMPLE  =      F    k-point downsampling of WAVECAR
   LCHARG       =      T    write CHGCAR
   LVTOT        =      F    write LOCPOT, total local potential
   LVHAR        =      F    write LOCPOT, Hartree potential only
   LELF         =      F    write electronic localiz. function (ELF)
   LORBIT       =     11    0 simple, 1 ext, 2 COOP (PROOUT), +10 PAW based schemes


 Dipole corrections
   LMONO  =      F    monopole corrections only (constant potential shift)
   LDIPOL =      F    correct potential (dipole corrections)
   IDIPOL =      0    1-x, 2-y, 3-z, 4-all directions 
   EPSILON=  1.0000000 bulk dielectric constant

 LDA+U is selected, type is set to LDAUTYPE =  2
   angular momentum for each species LDAUL =     2    2    2
   U (eV)           for each species LDAUU =   0.0  0.1  4.7
   J (eV)           for each species LDAUJ =   0.0  0.0  0.0
 Exchange correlation treatment:
   GGA     =    PS    GGA type
   LEXCH   =    14    internal setting for exchange type
   VOSKOWN=      0    Vosko Wilk Nusair interpolation
   LHFCALC =     F    Hartree Fock is set to
   LHFONE  =     F    Hartree Fock one center treatment
   AEXX    =    0.0000 exact exchange contribution

 Linear response parameters
   LEPSILON=     F    determine dielectric tensor
   LRPA    =     F    only Hartree local field effects (RPA)
   LNABLA  =     F    use nabla operator in PAW spheres
   LVEL    =     F    velocity operator in full k-point grid
   LINTERFAST=   F  fast interpolation
   KINTER  =     0    interpolate to denser k-point grid
   CSHIFT  =0.1000    complex shift for real part using Kramers Kronig
   OMEGAMAX=  -1.0    maximum frequency
   DEG_THRESHOLD= 0.2000000E-02 threshold for treating states as degnerate
   RTIME   =   -0.100 relaxation time in fs
  (WPLASMAI=    0.000 imaginary part of plasma frequency in eV, 0.658/RTIME)
   DFIELD  = 0.0000000 0.0000000 0.0000000 field for delta impulse in time
 
 Orbital magnetization related:
   ORBITALMAG=     F  switch on orbital magnetization
   LCHIMAG   =     F  perturbation theory with respect to B field
   DQ        =  0.001000  dq finite difference perturbation B field
   LLRAUG    =     F  two centre corrections for induced B field

 PEAD related settings:
   LPEAD      =     T    switch on PEAD
   IPEAD      =     4    finite difference order for dpsi/dk
   LCALCPOL   =     T    calculate macroscopic polarization
   LCALCEPS   =     F    calculate dielectric tensor
   EFIELD_PEAD=    0.0000    0.0000    0.0000
   SKIP_EDOTP =     F
   LRPA       =     F
   SKIP_SCF   =     F


--------------------------------------------------------------------------------------------------------


 Static calculation
 charge density and potential will be updated during run
 spin polarized calculation
 Variant of blocked Davidson
 Davidson routine will perform the subspace rotation
 perform sub-space diagonalisation
    after iterative eigenvector-optimisation
 modified Broyden-mixing scheme, WC =      100.0
 initial mixing is a Kerker type mixing with AMIX =  0.4000 and BMIX =      1.0000
 Hartree-type preconditioning will be used
 using additional bands          168
 reciprocal scheme for non local part
 use partial core corrections
 calculate Harris-corrections to forces 
   (improved forces if not selfconsistent)
 use gradient corrections 
 use of overlap-Matrix (Vanderbilt PP)
 Gauss-broadening in eV      SIGMA  =   0.03


--------------------------------------------------------------------------------------------------------


  energy-cutoff  :      700.00
  volume of cell :     1150.93
      direct lattice vectors                 reciprocal lattice vectors
    10.512333000  0.082487000  0.000000000     0.095132220 -0.000746473  0.000000000
     0.082487000 10.512333000  0.000000000    -0.000746473  0.095132220  0.000000000
     0.000000000  0.000000000 10.415425000     0.000000000  0.000000000  0.096011445

  length of vectors
    10.512656620 10.512656620 10.415425000     0.095135148  0.095135148  0.096011445


 
 old parameters found on file WAVECAR:
  energy-cutoff  :      700.00
  volume of cell :     1150.93
      direct lattice vectors                 reciprocal lattice vectors
    10.512333000  0.082487000  0.000000000     0.095132220 -0.000746473  0.000000000
     0.082487000 10.512333000  0.000000000    -0.000746473  0.095132220  0.000000000
     0.000000000  0.000000000 10.415425000     0.000000000  0.000000000  0.096011445

  length of vectors

 
 k-points in units of 2pi/SCALE and weight: Automatic mesh                          
   0.00000000  0.00000000  0.00000000       0.125
   0.04756611 -0.00037324  0.00000000       0.250
   0.04719287  0.04719287  0.00000000       0.125
   0.00000000  0.00000000  0.04800572       0.125
   0.04756611 -0.00037324  0.04800572       0.250
   0.04719287  0.04719287  0.04800572       0.125
 
 k-points in reciprocal lattice and weights: Automatic mesh                          
   0.00000000  0.00000000  0.00000000       0.125
   0.50000000  0.00000000  0.00000000       0.250
   0.50000000  0.50000000  0.00000000       0.125
   0.00000000  0.00000000  0.50000000       0.125
   0.50000000  0.00000000  0.50000000       0.250
   0.50000000  0.50000000  0.50000000       0.125
 
 position of ions in fractional coordinates (direct lattice) 
   0.12615200  0.12510000  0.12412400
   0.62615200  0.12510000  0.12412400
   0.12615200  0.62510000  0.12412400
   0.62615200  0.62510000  0.12412400
   0.37384800  0.37490000  0.12412400
   0.87384800  0.37490000  0.12412400
   0.37384800  0.87490000  0.12412400
   0.87384800  0.87490000  0.12412400
   0.12490000  0.37384800  0.87412400
   0.62490000  0.37384800  0.87412400
   0.12490000  0.87384800  0.87412400
   0.62490000  0.87384800  0.87412400
   0.37510000  0.12615200  0.87412400
   0.87510000  0.12615200  0.87412400
   0.37510000  0.62615200  0.87412400
   0.87510000  0.62615200  0.87412400
   0.12384800  0.12490000  0.62412400
   0.62384800  0.12490000  0.62412400
   0.12384800  0.62490000  0.62412400
   0.62384800  0.62490000  0.62412400
   0.37615200  0.37510000  0.62412400
   0.87615200  0.37510000  0.62412400
   0.37615200  0.87510000  0.62412400
   0.87615200  0.87510000  0.62412400
   0.37490000  0.12384800  0.37412400
   0.87490000  0.12384800  0.37412400
   0.37490000  0.62384800  0.37412400
   0.87490000  0.62384800  0.37412400
   0.12510000  0.37615200  0.37412400
   0.62510000  0.37615200  0.37412400
   0.12510000  0.87615200  0.37412400
   0.62510000  0.87615200  0.37412400
   0.00000000  0.00000000  0.50074600
   0.50000000  0.00000000  0.50074600
   0.00000000  0.50000000  0.50074600
   0.50000000  0.50000000  0.50074600
   0.25000000  0.00000000  0.25074600
   0.75000000  0.00000000  0.25074600
   0.25000000  0.50000000  0.25074600
   0.75000000  0.50000000  0.25074600
   0.25000000  0.25000000  0.00074600
   0.75000000  0.25000000  0.00074600
   0.25000000  0.75000000  0.00074600
   0.75000000  0.75000000  0.00074600
   0.00000000  0.25000000  0.75074600
   0.50000000  0.25000000  0.75074600
   0.00000000  0.75000000  0.75074600
   0.50000000  0.75000000  0.75074600
   0.00000000  0.00000000  0.00100600
   0.50000000  0.00000000  0.00100600
   0.00000000  0.50000000  0.00100600
   0.50000000  0.50000000  0.00100600
   0.25000000  0.00000000  0.75100600
   0.75000000  0.00000000  0.75100600
   0.25000000  0.50000000  0.75100600
   0.75000000  0.50000000  0.75100600
   0.25000000  0.25000000  0.50100600
   0.75000000  0.25000000  0.50100600
   0.25000000  0.75000000  0.50100600
   0.75000000  0.75000000  0.50100600
   0.00000000  0.25000000  0.25100600
   0.50000000  0.25000000  0.25100600
   0.00000000  0.75000000  0.25100600
   0.50000000  0.75000000  0.25100600
 
 position of ions in cartesian coordinates  (Angst):
   1.33647096  1.32549876  1.29280421
   6.59263746  1.36674226  1.29280421
   1.37771446  6.58166526  1.29280421
   6.63388096  6.62290876  1.29280421
   3.96093904  3.97191124  1.29280421
   9.21710554  4.01315474  1.29280421
   4.00218254  9.22807774  1.29280421
   9.25834904  9.26932124  1.29280421
   1.34382799  3.94031729  9.10437296
   6.59999449  3.98156079  9.10437296
   1.38507149  9.19648379  9.10437296
   6.64123799  9.23772729  9.10437296
   3.95358201  1.35709271  9.10437296
   9.20974851  1.39833621  9.10437296
   3.99482551  6.61325921  9.10437296
   9.25099201  6.65450271  9.10437296
   1.31223404  1.32320624  6.50051671
   6.56840054  1.36444974  6.50051671
   1.35347754  6.57937274  6.50051671
   6.60964404  6.62061624  6.50051671
   3.98517596  3.97420376  6.50051671
   9.24134246  4.01544726  6.50051671
   4.02641946  9.23037026  6.50051671
   9.28258596  9.27161376  6.50051671
   3.95128949  1.33285579  3.89666046
   9.20745599  1.37409929  3.89666046
   3.99253299  6.58902229  3.89666046
   9.24869949  6.63026579  3.89666046
   1.34612051  3.96455421  3.89666046
   6.60228701  4.00579771  3.89666046
   1.38736401  9.22072071  3.89666046
   6.64353051  9.26196421  3.89666046
   0.00000000  0.00000000  5.21548241
   5.25616650  0.04124350  5.21548241
   0.04124350  5.25616650  5.21548241
   5.29741000  5.29741000  5.21548241
   2.62808325  0.02062175  2.61162616
   7.88424975  0.06186525  2.61162616
   2.66932675  5.27678825  2.61162616
   7.92549325  5.31803175  2.61162616
   2.64870500  2.64870500  0.00776991
   7.90487150  2.68994850  0.00776991
   2.68994850  7.90487150  0.00776991
   7.94611500  7.94611500  0.00776991
   0.02062175  2.62808325  7.81933866
   5.27678825  2.66932675  7.81933866
   0.06186525  7.88424975  7.81933866
   5.31803175  7.92549325  7.81933866
   0.00000000  0.00000000  0.01047792
   5.25616650  0.04124350  0.01047792
   0.04124350  5.25616650  0.01047792
   5.29741000  5.29741000  0.01047792
   2.62808325  0.02062175  7.82204667
   7.88424975  0.06186525  7.82204667
   2.66932675  5.27678825  7.82204667
   7.92549325  5.31803175  7.82204667
   2.64870500  2.64870500  5.21819042
   7.90487150  2.68994850  5.21819042
   2.68994850  7.90487150  5.21819042
   7.94611500  7.94611500  5.21819042
   0.02062175  2.62808325  2.61433417
   5.27678825  2.66932675  2.61433417
   0.06186525  7.88424975  2.61433417
   5.31803175  7.92549325  2.61433417
 


--------------------------------------------------------------------------------------------------------


 k-point  1 :   0.0000 0.0000 0.0000  plane waves:   48419
 k-point  2 :   0.5000 0.0000 0.0000  plane waves:   48434
 k-point  3 :   0.5000 0.5000 0.0000  plane waves:   48428
 k-point  4 :   0.0000 0.0000 0.5000  plane waves:   48380
 k-point  5 :   0.5000 0.0000 0.5000  plane waves:   48360
 k-point  6 :   0.5000 0.5000 0.5000  plane waves:   48336

 maximum and minimum number of plane-waves per node :     48434    48336

 maximum number of plane-waves:     48434
 maximum index in each direction: 
   IXMAX=   22   IYMAX=   22   IZMAX=   22
   IXMIN=  -23   IYMIN=  -23   IZMIN=  -22


 serial   3D FFT for wavefunctions
 parallel 3D FFT for charge:
    minimum data exchange during FFTs selected (reduces bandwidth)


 total amount of memory used by VASP MPI-rank0   301249. kBytes
=======================================================================

   base      :      30000. kBytes
   nonl-proj :     175882. kBytes
   fftplans  :       4588. kBytes
   grid      :      69719. kBytes
   one-center:       1990. kBytes
   wavefun   :      19070. kBytes
 
     INWAV:  cpu time   11.2795: real time   11.5397
 Broyden mixing: mesh for mixing (old mesh)
   NGX = 45   NGY = 45   NGZ = 45
  (NGX  =192   NGY  =192   NGZ  =180)
  gives a total of  91125 points

 initial charge density was supplied:
 number of electron     688.0000476 magnetization      -0.0000000
 keeping initial charge density in first step


--------------------------------------------------------------------------------------------------------


 Maximum index for augmentation-charges          899 (set IRDMAX)


--------------------------------------------------------------------------------------------------------


 First call to EWALD:  gamma=   0.169
 Maximum number of real-space cells 3x 3x 3
 Maximum number of reciprocal cells 3x 3x 3

    FEWALD:  cpu time    0.0027: real time    0.0031


--------------------------------------- Iteration      1(   1)  ---------------------------------------


    POTLOK:  cpu time    0.3350: real time    0.3868
    SETDIJ:  cpu time    0.0149: real time    0.0150
     EDDAV:  cpu time  141.5224: real time  142.5896
       DOS:  cpu time    0.0017: real time    0.0018
    CHARGE:  cpu time    1.1775: real time    1.1855
    MIXING:  cpu time    0.0024: real time    0.0024
    --------------------------------------------
      LOOP:  cpu time  143.0541: real time  144.1812

 eigenvalue-minimisations  : 18944
 total energy-change (2. order) :-0.2984238E+03  (-0.1770622E+03)
 number of electron     688.0000478 magnetization       0.0000000
 augmentation part      283.1674587 magnetization       0.0000000

 Broyden mixing:
  rms(total) = 0.41671E+01    rms(broyden)= 0.41671E+01
  rms(prec ) = 0.41689E+01
  weight for this iteration     100.00

 Free energy of the ion-electron system (eV)
  ---------------------------------------------------
  alpha Z        PSCENC =      2355.61959951
  Ewald energy   TEWEN  =    -62463.66849717
  -Hartree energ DENC   =    -42968.01432918
  -exchange      EXHF   =         0.00000000
  -V(xc)+E(xc)   XCENC  =      3287.09938154
  PAW double counting   =    112319.01236994  -116011.83700398
  entropy T*S    EENTRO =        -0.00000000
  eigenvalues    EBANDS =    -10836.70038978
  atomic energy  EATOM  =    114020.06510763
  Solvation  Ediel_sol  =         0.00000000
  ---------------------------------------------------
  free energy    TOTEN  =      -298.42376149 eV

  energy without entropy =     -298.42376149  energy(sigma->0) =     -298.42376149


--------------------------------------------------------------------------------------------------------




--------------------------------------- Iteration      1(   2)  ---------------------------------------


    POTLOK:  cpu time    0.1280: real time    0.1313
    SETDIJ:  cpu time    0.0129: real time    0.0129
     EDDAV:  cpu time   78.1293: real time   78.7179
       DOS:  cpu time    0.0008: real time    0.0008
    CHARGE:  cpu time    1.1786: real time    1.1859
    MIXING:  cpu time    0.0025: real time    0.1362
    --------------------------------------------
      LOOP:  cpu time   79.4521: real time   80.1850

 eigenvalue-minimisations  : 13568
 total energy-change (2. order) :-0.2937334E+02  (-0.2945317E+02)
 number of electron     688.0000476 magnetization      -0.0000000
 augmentation part      281.4495482 magnetization      -0.0000000

 Broyden mixing:
  rms(total) = 0.16983E+01    rms(broyden)= 0.16983E+01
  rms(prec ) = 0.17148E+01
  weight for this iteration     100.00

 eigenvalues of (default mixing * dielectric matrix)
  average eigenvalue GAMMA=   0.6995
  0.6995

 Free energy of the ion-electron system (eV)
  ---------------------------------------------------
  alpha Z        PSCENC =      2355.61959951
  Ewald energy   TEWEN  =    -62463.66849717
  -Hartree energ DENC   =    -42980.48612983
  -exchange      EXHF   =         0.00000000
  -V(xc)+E(xc)   XCENC  =      3287.42940979
  PAW double counting   =    115893.04403736  -119602.88562149
  entropy T*S    EENTRO =        -0.00000000
  eigenvalues    EBANDS =    -10836.91500820
  atomic energy  EATOM  =    114020.06510763
  Solvation  Ediel_sol  =         0.00000000
  ---------------------------------------------------
  free energy    TOTEN  =      -327.79710239 eV

  energy without entropy =     -327.79710239  energy(sigma->0) =     -327.79710239


--------------------------------------------------------------------------------------------------------




--------------------------------------- Iteration      1(   3)  ---------------------------------------


    POTLOK:  cpu time    0.1272: real time    0.1296
    SETDIJ:  cpu time    0.0132: real time    0.0133
     EDDAV:  cpu time  139.6091: real time  140.5515
       DOS:  cpu time    0.0008: real time    0.0008
    CHARGE:  cpu time    1.1748: real time    1.1820
    MIXING:  cpu time    0.0015: real time    0.0147
    --------------------------------------------
      LOOP:  cpu time  140.9267: real time  141.8920

 eigenvalue-minimisations  : 18944
 total energy-change (2. order) :-0.3217347E+00  (-0.5470808E+00)
 number of electron     688.0000477 magnetization       0.0000000
 augmentation part      282.3403278 magnetization       0.0000000

 Broyden mixing:
  rms(total) = 0.12754E+01    rms(broyden)= 0.12754E+01
  rms(prec ) = 0.12924E+01
  weight for this iteration     100.00

 eigenvalues of (default mixing * dielectric matrix)
  average eigenvalue GAMMA=   0.5058
  0.5058  0.5058

 Free energy of the ion-electron system (eV)
  ---------------------------------------------------
  alpha Z        PSCENC =      2355.61959951
  Ewald energy   TEWEN  =    -62463.66849717
  -Hartree energ DENC   =    -42944.47018458
  -exchange      EXHF   =         0.00000000
  -V(xc)+E(xc)   XCENC  =      3286.76563601
  PAW double counting   =    114892.39922846  -118592.44365189
  entropy T*S    EENTRO =        -0.00000000
  eigenvalues    EBANDS =    -10882.38607503
  atomic energy  EATOM  =    114020.06510763
  Solvation  Ediel_sol  =         0.00000000
  ---------------------------------------------------
  free energy    TOTEN  =      -328.11883707 eV

  energy without entropy =     -328.11883707  energy(sigma->0) =     -328.11883707


--------------------------------------------------------------------------------------------------------




--------------------------------------- Iteration      1(   4)  ---------------------------------------


    POTLOK:  cpu time    0.1273: real time    0.1310
    SETDIJ:  cpu time    0.0130: real time    0.0130
     EDDAV:  cpu time   90.8363: real time   91.4934
       DOS:  cpu time    0.0008: real time    0.0008
    CHARGE:  cpu time    1.1746: real time    1.1829
    MIXING:  cpu time    0.0016: real time    0.0030
    --------------------------------------------
      LOOP:  cpu time   92.1536: real time   92.8242

 eigenvalue-minimisations  : 14592
 total energy-change (2. order) : 0.1846236E-01  (-0.7656828E-01)
 number of electron     688.0000477 magnetization       0.0000000
 augmentation part      282.1786528 magnetization       0.0000000

 Broyden mixing:
  rms(total) = 0.10606E+01    rms(broyden)= 0.10606E+01
  rms(prec ) = 0.10616E+01
  weight for this iteration     100.00

 eigenvalues of (default mixing * dielectric matrix)
  average eigenvalue GAMMA=   0.5340
  0.6292  0.6292  0.3436

 Free energy of the ion-electron system (eV)
  ---------------------------------------------------
  alpha Z        PSCENC =      2355.61959951
  Ewald energy   TEWEN  =    -62463.66849717
  -Hartree energ DENC   =    -42945.46917616
  -exchange      EXHF   =         0.00000000
  -V(xc)+E(xc)   XCENC  =      3286.39311552
  PAW double counting   =    114592.18514092  -118292.91219496
  entropy T*S    EENTRO =        -0.00000000
  eigenvalues    EBANDS =    -10880.31347000
  atomic energy  EATOM  =    114020.06510763
  Solvation  Ediel_sol  =         0.00000000
  ---------------------------------------------------
  free energy    TOTEN  =      -328.10037471 eV

  energy without entropy =     -328.10037471  energy(sigma->0) =     -328.10037471


--------------------------------------------------------------------------------------------------------




--------------------------------------- Iteration      1(   5)  ---------------------------------------


    POTLOK:  cpu time    0.1305: real time    0.1315
    SETDIJ:  cpu time    0.0131: real time    0.0132
     EDDAV:  cpu time   95.6493: real time   96.3386
       DOS:  cpu time    0.0008: real time    0.0008
    CHARGE:  cpu time    1.1761: real time    1.1841
    MIXING:  cpu time    0.0015: real time    0.0015
    --------------------------------------------
      LOOP:  cpu time   96.9712: real time   97.6696

 eigenvalue-minimisations  : 15104
 total energy-change (2. order) :-0.5514054E-03  (-0.4746769E-02)
 number of electron     688.0000476 magnetization      -0.0000000
 augmentation part      282.1138118 magnetization      -0.0000000

 Broyden mixing:
  rms(total) = 0.91380E+00    rms(broyden)= 0.91380E+00
  rms(prec ) = 0.91405E+00
  weight for this iteration     100.00

 eigenvalues of (default mixing * dielectric matrix)
  average eigenvalue GAMMA=   0.5708
  0.7873  0.7873  0.3543  0.3543

 Free energy of the ion-electron system (eV)
  ---------------------------------------------------
  alpha Z        PSCENC =      2355.61959951
  Ewald energy   TEWEN  =    -62463.66849717
  -Hartree energ DENC   =    -42953.54784558
  -exchange      EXHF   =         0.00000000
  -V(xc)+E(xc)   XCENC  =      3286.60884731
  PAW double counting   =    114239.37897647  -117939.78327939
  entropy T*S    EENTRO =        -0.00000000
  eigenvalues    EBANDS =    -10872.77383489
  atomic energy  EATOM  =    114020.06510763
  Solvation  Ediel_sol  =         0.00000000
  ---------------------------------------------------
  free energy    TOTEN  =      -328.10092611 eV

  energy without entropy =     -328.10092611  energy(sigma->0) =     -328.10092611


--------------------------------------------------------------------------------------------------------




--------------------------------------- Iteration      1(   6)  ---------------------------------------


    POTLOK:  cpu time    0.1292: real time    0.1311
    SETDIJ:  cpu time    0.0131: real time    0.0131
     EDDAV:  cpu time  114.8090: real time  115.6038
       DOS:  cpu time    0.0008: real time    0.0008
    CHARGE:  cpu time    1.1768: real time    1.1843
    MIXING:  cpu time    0.0015: real time    0.0015
    --------------------------------------------
      LOOP:  cpu time  116.1303: real time  116.9346

 eigenvalue-minimisations  : 16384
 total energy-change (2. order) : 0.4429520E-03  (-0.3704849E-03)
 number of electron     688.0000476 magnetization       0.0000000
 augmentation part      282.1070225 magnetization       0.0000000

 Broyden mixing:
  rms(total) = 0.73572E+00    rms(broyden)= 0.73572E+00
  rms(prec ) = 0.73616E+00
  weight for this iteration     100.00

 eigenvalues of (default mixing * dielectric matrix)
  average eigenvalue GAMMA=   0.8184
  1.3356  1.3356  0.5455  0.5455  0.3298

 Free energy of the ion-electron system (eV)
  ---------------------------------------------------
  alpha Z        PSCENC =      2355.61959951
  Ewald energy   TEWEN  =    -62463.66849717
  -Hartree energ DENC   =    -42955.00509366
  -exchange      EXHF   =         0.00000000
  -V(xc)+E(xc)   XCENC  =      3286.58899051
  PAW double counting   =    113830.29815132  -117529.35125326
  entropy T*S    EENTRO =        -0.00000000
  eigenvalues    EBANDS =    -10872.64748804
  atomic energy  EATOM  =    114020.06510763
  Solvation  Ediel_sol  =         0.00000000
  ---------------------------------------------------
  free energy    TOTEN  =      -328.10048316 eV

  energy without entropy =     -328.10048316  energy(sigma->0) =     -328.10048316


--------------------------------------------------------------------------------------------------------




--------------------------------------- Iteration      1(   7)  ---------------------------------------


    POTLOK:  cpu time    0.1284: real time    0.1319
    SETDIJ:  cpu time    0.0130: real time    0.0130
     EDDAV:  cpu time  111.0189: real time  111.7947
       DOS:  cpu time    0.0008: real time    0.0008
    CHARGE:  cpu time    1.1723: real time    1.1799
    MIXING:  cpu time    0.0016: real time    0.0016
    --------------------------------------------
      LOOP:  cpu time  112.3349: real time  113.1220

 eigenvalue-minimisations  : 16128
 total energy-change (2. order) : 0.2302790E-02  (-0.8098936E-03)
 number of electron     688.0000477 magnetization       0.0000000
 augmentation part      282.2126471 magnetization       0.0000000

 Broyden mixing:
  rms(total) = 0.14835E+00    rms(broyden)= 0.14835E+00
  rms(prec ) = 0.14856E+00
  weight for this iteration     100.00

 eigenvalues of (default mixing * dielectric matrix)
  average eigenvalue GAMMA=   0.8714
  1.5537  1.5537  0.6113  0.6113  0.5608  0.3377

 Free energy of the ion-electron system (eV)
  ---------------------------------------------------
  alpha Z        PSCENC =      2355.61959951
  Ewald energy   TEWEN  =    -62463.66849717
  -Hartree energ DENC   =    -42956.00971490
  -exchange      EXHF   =         0.00000000
  -V(xc)+E(xc)   XCENC  =      3286.50596152
  PAW double counting   =    112514.21585970  -116208.51551369
  entropy T*S    EENTRO =        -0.00000000
  eigenvalues    EBANDS =    -10876.31098297
  atomic energy  EATOM  =    114020.06510763
  Solvation  Ediel_sol  =         0.00000000
  ---------------------------------------------------
  free energy    TOTEN  =      -328.09818037 eV

  energy without entropy =     -328.09818037  energy(sigma->0) =     -328.09818037


--------------------------------------------------------------------------------------------------------




--------------------------------------- Iteration      1(   8)  ---------------------------------------


    POTLOK:  cpu time    0.1299: real time    0.1306
    SETDIJ:  cpu time    0.0129: real time    0.0130
     EDDAV:  cpu time   85.0288: real time   85.6520
       DOS:  cpu time    0.0008: real time    0.0008
    CHARGE:  cpu time    1.1802: real time    1.1885
    MIXING:  cpu time    0.0020: real time    0.0020
    --------------------------------------------
      LOOP:  cpu time   86.3546: real time   86.9869

 eigenvalue-minimisations  : 13824
 total energy-change (2. order) :-0.3185515E-04  (-0.3510684E-04)
 number of electron     688.0000477 magnetization       0.0000000
 augmentation part      282.2063250 magnetization       0.0000000

 Broyden mixing:
  rms(total) = 0.99646E-01    rms(broyden)= 0.99646E-01
  rms(prec ) = 0.99927E-01
  weight for this iteration     100.00

 eigenvalues of (default mixing * dielectric matrix)
  average eigenvalue GAMMA=   0.7926
  1.5721  1.5721  0.6184  0.6184  0.5220  0.3522  0.2927

 Free energy of the ion-electron system (eV)
  ---------------------------------------------------
  alpha Z        PSCENC =      2355.61959951
  Ewald energy   TEWEN  =    -62463.66849717
  -Hartree energ DENC   =    -42956.69932800
  -exchange      EXHF   =         0.00000000
  -V(xc)+E(xc)   XCENC  =      3286.51850632
  PAW double counting   =    112425.18758424  -116119.36829459
  entropy T*S    EENTRO =        -0.00000000
  eigenvalues    EBANDS =    -10875.75289016
  atomic energy  EATOM  =    114020.06510763
  Solvation  Ediel_sol  =         0.00000000
  ---------------------------------------------------
  free energy    TOTEN  =      -328.09821223 eV

  energy without entropy =     -328.09821223  energy(sigma->0) =     -328.09821223


--------------------------------------------------------------------------------------------------------




--------------------------------------- Iteration      1(   9)  ---------------------------------------


    POTLOK:  cpu time    0.1395: real time    0.1408
    SETDIJ:  cpu time    0.0152: real time    0.0152
     EDDAV:  cpu time  128.6809: real time  129.5535
       DOS:  cpu time    0.0008: real time    0.0008
    CHARGE:  cpu time    1.1746: real time    1.1819
    MIXING:  cpu time    0.0016: real time    0.0016
    --------------------------------------------
      LOOP:  cpu time  130.0125: real time  130.8938

 eigenvalue-minimisations  : 17408
 total energy-change (2. order) : 0.1627226E-04  (-0.2441953E-05)
 number of electron     688.0000477 magnetization      -0.0000000
 augmentation part      282.2071468 magnetization      -0.0000000

 Broyden mixing:
  rms(total) = 0.90914E-01    rms(broyden)= 0.90914E-01
  rms(prec ) = 0.91141E-01
  weight for this iteration     100.00

 eigenvalues of (default mixing * dielectric matrix)
  average eigenvalue GAMMA=   1.1283
  2.4116  2.4116  1.0272  1.0272  0.3354  0.5945  0.5945  0.6242

 Free energy of the ion-electron system (eV)
  ---------------------------------------------------
  alpha Z        PSCENC =      2355.61959951
  Ewald energy   TEWEN  =    -62463.66849717
  -Hartree energ DENC   =    -42956.57433151
  -exchange      EXHF   =         0.00000000
  -V(xc)+E(xc)   XCENC  =      3286.51785100
  PAW double counting   =    112418.80322991  -116113.00069284
  entropy T*S    EENTRO =        -0.00000000
  eigenvalues    EBANDS =    -10875.86046249
  atomic energy  EATOM  =    114020.06510763
  Solvation  Ediel_sol  =         0.00000000
  ---------------------------------------------------
  free energy    TOTEN  =      -328.09819595 eV

  energy without entropy =     -328.09819595  energy(sigma->0) =     -328.09819595


--------------------------------------------------------------------------------------------------------




--------------------------------------- Iteration      1(  10)  ---------------------------------------


    POTLOK:  cpu time    0.1310: real time    0.1324
    SETDIJ:  cpu time    0.0130: real time    0.0130
     EDDAV:  cpu time   89.7555: real time   90.4045
       DOS:  cpu time    0.0008: real time    0.0008
    CHARGE:  cpu time    1.1752: real time    1.1836
    MIXING:  cpu time    0.0017: real time    0.0017
    --------------------------------------------
      LOOP:  cpu time   91.0771: real time   91.7360

 eigenvalue-minimisations  : 14080
 total energy-change (2. order) : 0.5365249E-04  (-0.4029991E-04)
 number of electron     688.0000477 magnetization      -0.0000000
 augmentation part      282.2184043 magnetization      -0.0000000

 Broyden mixing:
  rms(total) = 0.94806E-02    rms(broyden)= 0.94806E-02
  rms(prec ) = 0.95021E-02
  weight for this iteration     100.00

 eigenvalues of (default mixing * dielectric matrix)
  average eigenvalue GAMMA=   1.0505
  2.6740  1.9058  1.2413  0.9064  0.3354  0.6900  0.5851  0.5851  0.5318

 Free energy of the ion-electron system (eV)
  ---------------------------------------------------
  alpha Z        PSCENC =      2355.61959951
  Ewald energy   TEWEN  =    -62463.66849717
  -Hartree energ DENC   =    -42956.06912011
  -exchange      EXHF   =         0.00000000
  -V(xc)+E(xc)   XCENC  =      3286.50990630
  PAW double counting   =    112298.84564511  -115992.85172290
  entropy T*S    EENTRO =        -0.00000000
  eigenvalues    EBANDS =    -10876.54906067
  atomic energy  EATOM  =    114020.06510763
  Solvation  Ediel_sol  =         0.00000000
  ---------------------------------------------------
  free energy    TOTEN  =      -328.09814230 eV

  energy without entropy =     -328.09814230  energy(sigma->0) =     -328.09814230


--------------------------------------------------------------------------------------------------------




--------------------------------------- Iteration      1(  11)  ---------------------------------------


    POTLOK:  cpu time    0.1300: real time    0.1317
    SETDIJ:  cpu time    0.0132: real time    0.0132
     EDDAV:  cpu time  101.1577: real time  101.8663
       DOS:  cpu time    0.0008: real time    0.0008
    CHARGE:  cpu time    1.1767: real time    1.1849
    MIXING:  cpu time    0.0019: real time    0.0019
    --------------------------------------------
      LOOP:  cpu time  102.4802: real time  103.1989

 eigenvalue-minimisations  : 14848
 total energy-change (2. order) :-0.7778144E-06  (-0.1354598E-05)
 number of electron     688.0000477 magnetization      -0.0000000
 augmentation part      282.2203448 magnetization      -0.0000000

 Broyden mixing:
  rms(total) = 0.17800E-02    rms(broyden)= 0.17800E-02
  rms(prec ) = 0.18019E-02
  weight for this iteration     100.00

 eigenvalues of (default mixing * dielectric matrix)
  average eigenvalue GAMMA=   1.0389
  2.8941  1.5402  1.5402  0.3354  0.7188  0.7188  0.7155  0.7155  0.6055  0.6055

 Free energy of the ion-electron system (eV)
  ---------------------------------------------------
  alpha Z        PSCENC =      2355.61959951
  Ewald energy   TEWEN  =    -62463.66849717
  -Hartree energ DENC   =    -42956.07439758
  -exchange      EXHF   =         0.00000000
  -V(xc)+E(xc)   XCENC  =      3286.50807202
  PAW double counting   =    112281.45970471  -115975.42729162
  entropy T*S    EENTRO =        -0.00000000
  eigenvalues    EBANDS =    -10876.58044059
  atomic energy  EATOM  =    114020.06510763
  Solvation  Ediel_sol  =         0.00000000
  ---------------------------------------------------
  free energy    TOTEN  =      -328.09814308 eV

  energy without entropy =     -328.09814308  energy(sigma->0) =     -328.09814308


--------------------------------------------------------------------------------------------------------




--------------------------------------- Iteration      1(  12)  ---------------------------------------


    POTLOK:  cpu time    0.1310: real time    0.1322
    SETDIJ:  cpu time    0.0130: real time    0.0130
     EDDAV:  cpu time  169.6885: real time  170.7949
       DOS:  cpu time    0.0008: real time    0.0008
    CHARGE:  cpu time    1.1774: real time    1.1856
    MIXING:  cpu time    0.0020: real time    0.0027
    --------------------------------------------
      LOOP:  cpu time  171.0127: real time  172.1293

 eigenvalue-minimisations  : 21248
 total energy-change (2. order) :-0.2258166E-06  (-0.1337232E-06)
 number of electron     688.0000477 magnetization       0.0000000
 augmentation part      282.2205660 magnetization       0.0000000

 Broyden mixing:
  rms(total) = 0.37119E-02    rms(broyden)= 0.37119E-02
  rms(prec ) = 0.37192E-02
  weight for this iteration     100.00

 eigenvalues of (default mixing * dielectric matrix)
  average eigenvalue GAMMA=   1.1287
  3.0835  1.7402  1.7402  1.1227  1.1227  0.3354  0.7343  0.7343  0.5966  0.5966
  0.6090

 Free energy of the ion-electron system (eV)
  ---------------------------------------------------
  alpha Z        PSCENC =      2355.61959951
  Ewald energy   TEWEN  =    -62463.66849717
  -Hartree energ DENC   =    -42956.08666104
  -exchange      EXHF   =         0.00000000
  -V(xc)+E(xc)   XCENC  =      3286.50778632
  PAW double counting   =    112271.66341690  -115965.62151213
  entropy T*S    EENTRO =        -0.00000000
  eigenvalues    EBANDS =    -10876.57738333
  atomic energy  EATOM  =    114020.06510763
  Solvation  Ediel_sol  =         0.00000000
  ---------------------------------------------------
  free energy    TOTEN  =      -328.09814331 eV

  energy without entropy =     -328.09814331  energy(sigma->0) =     -328.09814331


--------------------------------------------------------------------------------------------------------




--------------------------------------- Iteration      1(  13)  ---------------------------------------


    POTLOK:  cpu time    0.1296: real time    0.1307
    SETDIJ:  cpu time    0.0130: real time    0.0130
     EDDAV:  cpu time  104.7015: real time  105.4286
       DOS:  cpu time    0.0008: real time    0.0008
    CHARGE:  cpu time    1.1775: real time    1.1846
    MIXING:  cpu time    0.0020: real time    0.0021
    --------------------------------------------
      LOOP:  cpu time  106.0244: real time  106.7598

 eigenvalue-minimisations  : 15360
 total energy-change (2. order) :-0.7123308E-06  (-0.1161587E-06)
 number of electron     688.0000477 magnetization       0.0000000
 augmentation part      282.2201522 magnetization       0.0000000

 Broyden mixing:
  rms(total) = 0.32799E-02    rms(broyden)= 0.32799E-02
  rms(prec ) = 0.32810E-02
  weight for this iteration     100.00

 eigenvalues of (default mixing * dielectric matrix)
  average eigenvalue GAMMA=   1.1263
  2.9293  1.9249  1.9249  1.1736  1.1736  0.3354  0.8140  0.8140  0.5975  0.5975
  0.6157  0.6157

 Free energy of the ion-electron system (eV)
  ---------------------------------------------------
  alpha Z        PSCENC =      2355.61959951
  Ewald energy   TEWEN  =    -62463.66849717
  -Hartree energ DENC   =    -42956.12240525
  -exchange      EXHF   =         0.00000000
  -V(xc)+E(xc)   XCENC  =      3286.50837423
  PAW double counting   =    112271.10060151  -115965.07732873
  entropy T*S    EENTRO =        -0.00000000
  eigenvalues    EBANDS =    -10876.52359575
  atomic energy  EATOM  =    114020.06510763
  Solvation  Ediel_sol  =         0.00000000
  ---------------------------------------------------
  free energy    TOTEN  =      -328.09814402 eV

  energy without entropy =     -328.09814402  energy(sigma->0) =     -328.09814402


--------------------------------------------------------------------------------------------------------




--------------------------------------- Iteration      1(  14)  ---------------------------------------


    POTLOK:  cpu time    0.1299: real time    0.1309
    SETDIJ:  cpu time    0.0131: real time    0.0131
     EDDAV:  cpu time  112.2322: real time  113.0017
       DOS:  cpu time    0.0008: real time    0.0008
    CHARGE:  cpu time    1.1750: real time    1.1833
    MIXING:  cpu time    0.0018: real time    0.0019
    --------------------------------------------
      LOOP:  cpu time  113.5528: real time  114.3317

 eigenvalue-minimisations  : 15872
 total energy-change (2. order) :-0.4450558E-06  (-0.1711584E-07)
 number of electron     688.0000477 magnetization       0.0000000
 augmentation part      282.2202073 magnetization       0.0000000

 Broyden mixing:
  rms(total) = 0.14557E-02    rms(broyden)= 0.14557E-02
  rms(prec ) = 0.14564E-02
  weight for this iteration     100.00

 eigenvalues of (default mixing * dielectric matrix)
  average eigenvalue GAMMA=   1.1492
  3.0472  2.1145  2.1145  1.2061  1.2061  0.3354  0.8838  0.8838  0.5992  0.5992
  0.6760  0.6760  0.5980

 Free energy of the ion-electron system (eV)
  ---------------------------------------------------
  alpha Z        PSCENC =      2355.61959951
  Ewald energy   TEWEN  =    -62463.66849717
  -Hartree energ DENC   =    -42956.10997059
  -exchange      EXHF   =         0.00000000
  -V(xc)+E(xc)   XCENC  =      3286.50814302
  PAW double counting   =    112274.28609950  -115968.27596747
  entropy T*S    EENTRO =        -0.00000000
  eigenvalues    EBANDS =    -10876.52265890
  atomic energy  EATOM  =    114020.06510763
  Solvation  Ediel_sol  =         0.00000000
  ---------------------------------------------------
  free energy    TOTEN  =      -328.09814446 eV

  energy without entropy =     -328.09814446  energy(sigma->0) =     -328.09814446


--------------------------------------------------------------------------------------------------------




--------------------------------------- Iteration      1(  15)  ---------------------------------------


    POTLOK:  cpu time    0.1300: real time    0.1310
    SETDIJ:  cpu time    0.0129: real time    0.0130
     EDDAV:  cpu time   78.9815: real time   79.5384
       DOS:  cpu time    0.0008: real time    0.0008
    CHARGE:  cpu time    1.1753: real time    1.1836
    MIXING:  cpu time    0.0020: real time    0.0020
    --------------------------------------------
      LOOP:  cpu time   80.3025: real time   80.8688

 eigenvalue-minimisations  : 11520
 total energy-change (2. order) :-0.1715671E-06  (-0.1093638E-07)
 number of electron     688.0000477 magnetization      -0.0000000
 augmentation part      282.2202604 magnetization      -0.0000000

 Broyden mixing:
  rms(total) = 0.10083E-02    rms(broyden)= 0.10083E-02
  rms(prec ) = 0.10088E-02
  weight for this iteration     100.00

 eigenvalues of (default mixing * dielectric matrix)
  average eigenvalue GAMMA=   1.2392
  3.6147  2.3231  2.3231  1.3675  1.3675  1.0386  1.0386  0.3354  0.5980  0.5980
  0.7464  0.7464  0.6222  0.6291

 Free energy of the ion-electron system (eV)
  ---------------------------------------------------
  alpha Z        PSCENC =      2355.61959951
  Ewald energy   TEWEN  =    -62463.66849717
  -Hartree energ DENC   =    -42956.09803629
  -exchange      EXHF   =         0.00000000
  -V(xc)+E(xc)   XCENC  =      3286.50780445
  PAW double counting   =    112275.13514005  -115969.13110850
  entropy T*S    EENTRO =        -0.00000000
  eigenvalues    EBANDS =    -10876.52815432
  atomic energy  EATOM  =    114020.06510763
  Solvation  Ediel_sol  =         0.00000000
  ---------------------------------------------------
  free energy    TOTEN  =      -328.09814463 eV

  energy without entropy =     -328.09814463  energy(sigma->0) =     -328.09814463


--------------------------------------------------------------------------------------------------------




--------------------------------------- Iteration      1(  16)  ---------------------------------------


    POTLOK:  cpu time    0.1283: real time    0.1296
    SETDIJ:  cpu time    0.0128: real time    0.0129
     EDDAV:  cpu time  107.9849: real time  108.7263
       DOS:  cpu time    0.0029: real time    0.0030
    CHARGE:  cpu time    1.1766: real time    1.1850
    MIXING:  cpu time    0.0022: real time    0.0022
    --------------------------------------------
      LOOP:  cpu time  109.3080: real time  110.0591

 eigenvalue-minimisations  : 15616
 total energy-change (2. order) :-0.1015578E-06  (-0.9605618E-08)
 number of electron     688.0000477 magnetization       0.0000000
 augmentation part      282.2201256 magnetization       0.0000000

 Broyden mixing:
  rms(total) = 0.24361E-03    rms(broyden)= 0.24361E-03
  rms(prec ) = 0.24381E-03
  weight for this iteration     100.00

 eigenvalues of (default mixing * dielectric matrix)
  average eigenvalue GAMMA=   1.2231
  3.7694  2.5185  1.9947  1.7379  1.2069  1.2069  0.9653  0.3354  0.7649  0.7649
  0.5985  0.5985  0.6788  0.6033  0.6033

 Free energy of the ion-electron system (eV)
  ---------------------------------------------------
  alpha Z        PSCENC =      2355.61959951
  Ewald energy   TEWEN  =    -62463.66849717
  -Hartree energ DENC   =    -42956.09468674
  -exchange      EXHF   =         0.00000000
  -V(xc)+E(xc)   XCENC  =      3286.50778713
  PAW double counting   =    112276.68211323  -115970.68415680
  entropy T*S    EENTRO =        -0.00000000
  eigenvalues    EBANDS =    -10876.52541153
  atomic energy  EATOM  =    114020.06510763
  Solvation  Ediel_sol  =         0.00000000
  ---------------------------------------------------
  free energy    TOTEN  =      -328.09814474 eV

  energy without entropy =     -328.09814474  energy(sigma->0) =     -328.09814474


--------------------------------------------------------------------------------------------------------




--------------------------------------- Iteration      1(  17)  ---------------------------------------


    POTLOK:  cpu time    0.1283: real time    0.1325
    SETDIJ:  cpu time    0.0129: real time    0.0130
     EDDAV:  cpu time   68.4301: real time   68.9197
       DOS:  cpu time    0.0008: real time    0.0008
    CHARGE:  cpu time    1.1760: real time    1.1844
    MIXING:  cpu time    0.0023: real time    0.0023
    --------------------------------------------
      LOOP:  cpu time   69.7503: real time   70.2526

 eigenvalue-minimisations  : 10240
 total energy-change (2. order) :-0.2056186E-07  (-0.5599909E-09)
 number of electron     688.0000477 magnetization       0.0000000
 augmentation part      282.2201072 magnetization       0.0000000

 Broyden mixing:
  rms(total) = 0.54604E-04    rms(broyden)= 0.54603E-04
  rms(prec ) = 0.54908E-04
  weight for this iteration     100.00

 eigenvalues of (default mixing * dielectric matrix)
  average eigenvalue GAMMA=   1.2370
  3.7879  2.7941  1.9320  1.9320  1.2372  1.2372  0.8883  0.8883  0.3354  0.8337
  0.8337  0.5980  0.5980  0.6461  0.6461  0.6041

 Free energy of the ion-electron system (eV)
  ---------------------------------------------------
  alpha Z        PSCENC =      2355.61959951
  Ewald energy   TEWEN  =    -62463.66849717
  -Hartree energ DENC   =    -42956.09375438
  -exchange      EXHF   =         0.00000000
  -V(xc)+E(xc)   XCENC  =      3286.50780842
  PAW double counting   =    112277.23891607  -115971.24186501
  entropy T*S    EENTRO =        -0.00000000
  eigenvalues    EBANDS =    -10876.52545983
  atomic energy  EATOM  =    114020.06510763
  Solvation  Ediel_sol  =         0.00000000
  ---------------------------------------------------
  free energy    TOTEN  =      -328.09814476 eV

  energy without entropy =     -328.09814476  energy(sigma->0) =     -328.09814476


--------------------------------------------------------------------------------------------------------




--------------------------------------- Iteration      1(  18)  ---------------------------------------


    POTLOK:  cpu time    0.1285: real time    0.1294
    SETDIJ:  cpu time    0.0129: real time    0.0129
     EDDAV:  cpu time   88.4606: real time   89.0553
       DOS:  cpu time    0.0008: real time    0.0008
    --------------------------------------------
      LOOP:  cpu time   88.6027: real time   89.1985

 eigenvalue-minimisations  : 11520
 total energy-change (2. order) :-0.8803909E-08  (-0.3367864E-09)
 number of electron     688.0000477 magnetization       0.0000000
 augmentation part      282.2201072 magnetization       0.0000000

 Free energy of the ion-electron system (eV)
  ---------------------------------------------------
  alpha Z        PSCENC =      2355.61959951
  Ewald energy   TEWEN  =    -62463.66849717
  -Hartree energ DENC   =    -42956.09317433
  -exchange      EXHF   =         0.00000000
  -V(xc)+E(xc)   XCENC  =      3286.50782651
  PAW double counting   =    112277.38408863  -115971.38707963
  entropy T*S    EENTRO =        -0.00000000
  eigenvalues    EBANDS =    -10876.52601592
  atomic energy  EATOM  =    114020.06510763
  Solvation  Ediel_sol  =         0.00000000
  ---------------------------------------------------
  free energy    TOTEN  =      -328.09814477 eV

  energy without entropy =     -328.09814477  energy(sigma->0) =     -328.09814477


--------------------------------------------------------------------------------------------------------




 average (electrostatic) potential at core
  the test charge radii are     0.9698  0.8297  0.9500
  (the norm of the test charge is              1.0000)
       1 -86.6239       2 -86.6239       3 -86.6239       4 -86.6239       5 -86.6239
       6 -86.6239       7 -86.6239       8 -86.6239       9 -86.6239      10 -86.6239
      11 -86.6239      12 -86.6239      13 -86.6239      14 -86.6239      15 -86.6239
      16 -86.6239      17 -86.6239      18 -86.6239      19 -86.6239      20 -86.6239
      21 -86.6239      22 -86.6239      23 -86.6239      24 -86.6239      25 -86.6239
      26 -86.6239      27 -86.6239      28 -86.6239      29 -86.6239      30 -86.6239
      31 -86.6239      32 -86.6239      33 -80.7029      34 -80.7029      35 -80.7029
      36 -80.7029      37 -80.7029      38 -80.7029      39 -80.7029      40 -80.7029
      41 -80.7029      42 -80.7029      43 -80.7029      44 -80.7029      45 -80.7029
      46 -80.7029      47 -80.7029      48 -80.7029      49 -80.2299      50 -80.2299
      51 -80.2299      52 -80.2299      53 -80.2299      54 -80.2299      55 -80.2299
      56 -80.2299      57 -80.2299      58 -80.2299      59 -80.2299      60 -80.2299
[...]
   -.166E+00 0.421E+02 0.485E+01   0.160E+00 -.430E+02 -.490E+01   0.521E-02 0.863E+00 0.480E-01   -.121E-05 0.264E-05 0.288E-05
   -.421E+02 0.166E+00 0.485E+01   0.430E+02 -.160E+00 -.490E+01   -.863E+00 -.521E-02 0.480E-01   -.264E-05 0.121E-05 0.288E-05
   -.421E+02 0.166E+00 0.485E+01   0.430E+02 -.160E+00 -.490E+01   -.863E+00 -.521E-02 0.480E-01   -.264E-05 0.121E-05 0.288E-05
   -.421E+02 0.166E+00 0.485E+01   0.430E+02 -.160E+00 -.490E+01   -.863E+00 -.521E-02 0.480E-01   -.264E-05 0.121E-05 0.288E-05
   -.421E+02 0.166E+00 0.485E+01   0.430E+02 -.160E+00 -.490E+01   -.863E+00 -.521E-02 0.480E-01   -.264E-05 0.121E-05 0.288E-05
   0.421E+02 -.166E+00 0.485E+01   -.430E+02 0.160E+00 -.490E+01   0.863E+00 0.521E-02 0.480E-01   0.264E-05 -.121E-05 0.288E-05
   0.421E+02 -.166E+00 0.485E+01   -.430E+02 0.160E+00 -.490E+01   0.863E+00 0.521E-02 0.480E-01   0.264E-05 -.121E-05 0.288E-05
   0.421E+02 -.166E+00 0.485E+01   -.430E+02 0.160E+00 -.490E+01   0.863E+00 0.521E-02 0.480E-01   0.264E-05 -.121E-05 0.288E-05
   0.421E+02 -.166E+00 0.485E+01   -.430E+02 0.160E+00 -.490E+01   0.863E+00 0.521E-02 0.480E-01   0.264E-05 -.121E-05 0.288E-05
   0.166E+00 -.421E+02 0.485E+01   -.160E+00 0.430E+02 -.490E+01   -.521E-02 -.863E+00 0.480E-01   0.121E-05 -.264E-05 0.288E-05
   0.166E+00 -.421E+02 0.485E+01   -.160E+00 0.430E+02 -.490E+01   -.521E-02 -.863E+00 0.480E-01   0.121E-05 -.264E-05 0.288E-05
   0.166E+00 -.421E+02 0.485E+01   -.160E+00 0.430E+02 -.490E+01   -.521E-02 -.863E+00 0.480E-01   0.121E-05 -.264E-05 0.288E-05
   0.166E+00 -.421E+02 0.485E+01   -.160E+00 0.430E+02 -.490E+01   -.521E-02 -.863E+00 0.480E-01   0.121E-05 -.264E-05 0.288E-05
   -.166E+00 0.421E+02 0.485E+01   0.160E+00 -.430E+02 -.490E+01   0.521E-02 0.863E+00 0.480E-01   -.121E-05 0.264E-05 0.288E-05
   -.166E+00 0.421E+02 0.485E+01   0.160E+00 -.430E+02 -.490E+01   0.521E-02 0.863E+00 0.480E-01   -.121E-05 0.264E-05 0.288E-05
   -.166E+00 0.421E+02 0.485E+01   0.160E+00 -.430E+02 -.490E+01   0.521E-02 0.863E+00 0.480E-01   -.121E-05 0.264E-05 0.288E-05
   -.166E+00 0.421E+02 0.485E+01   0.160E+00 -.430E+02 -.490E+01   0.521E-02 0.863E+00 0.480E-01   -.121E-05 0.264E-05 0.288E-05
   -.137E-06 0.215E-07 -.571E+01   -.200E-12 0.206E-12 0.548E+01   0.184E-25 0.000E+00 0.232E+00   -.113E-12 0.897E-13 -.155E-04
   -.137E-06 0.215E-07 -.571E+01   -.168E-12 0.199E-12 0.548E+01   0.129E-25 -.149E-24 0.232E+00   -.218E-12 0.947E-13 -.155E-04
   -.137E-06 0.215E-07 -.571E+01   -.200E-12 0.185E-12 0.548E+01   -.949E-26 0.517E-25 0.232E+00   -.168E-12 -.227E-12 -.155E-04
   -.137E-06 0.215E-07 -.571E+01   -.197E-12 0.171E-12 0.548E+01   -.424E-26 0.129E-24 0.232E+00   -.169E-12 -.399E-12 -.155E-04
   0.215E-07 -.137E-06 -.571E+01   0.853E-13 0.000E+00 0.548E+01   0.146E-25 0.398E-25 0.232E+00   -.486E-12 0.974E-13 -.155E-04
   0.215E-07 -.137E-06 -.571E+01   0.568E-13 0.000E+00 0.548E+01   0.152E-24 -.343E-25 0.232E+00   -.412E-13 0.108E-12 -.155E-04
   0.215E-07 -.137E-06 -.571E+01   0.568E-13 0.853E-13 0.548E+01   -.430E-25 -.582E-25 0.232E+00   -.472E-12 0.364E-14 -.155E-04
   0.215E-07 -.137E-06 -.571E+01   0.568E-13 0.853E-13 0.548E+01   0.853E-26 -.194E-25 0.232E+00   -.149E-13 -.662E-13 -.155E-04
   -.137E-06 0.215E-07 -.571E+01   -.242E-12 -.453E-13 0.548E+01   -.324E-25 -.517E-25 0.232E+00   -.536E-12 0.127E-12 -.155E-04
   -.137E-06 0.215E-07 -.571E+01   -.185E-12 -.595E-13 0.548E+01   0.310E-25 -.711E-25 0.232E+00   0.758E-13 0.493E-12 -.155E-04
   -.137E-06 0.215E-07 -.571E+01   -.227E-12 -.746E-13 0.548E+01   -.571E-25 -.129E-25 0.232E+00   -.627E-12 -.272E-12 -.155E-04
   -.137E-06 0.216E-07 -.571E+01   -.227E-12 -.251E-13 0.548E+01   -.306E-25 -.258E-25 0.232E+00   0.148E-12 -.531E-12 -.155E-04
   0.215E-07 -.137E-06 -.571E+01   0.211E-13 -.205E-12 0.548E+01   0.625E-25 -.129E-25 0.232E+00   0.156E-12 0.218E-12 -.155E-04
   0.215E-07 -.137E-06 -.571E+01   0.519E-13 -.205E-12 0.548E+01   -.587E-25 -.856E-25 0.232E+00   -.500E-12 0.289E-12 -.155E-04
   0.215E-07 -.137E-06 -.571E+01   0.566E-13 -.171E-12 0.548E+01   -.225E-25 -.517E-25 0.232E+00   0.381E-12 -.168E-12 -.155E-04
   0.215E-07 -.137E-06 -.571E+01   0.590E-13 -.171E-12 0.548E+01   0.121E-24 0.339E-25 0.232E+00   -.661E-12 -.325E-12 -.155E-04
   0.918E-08 -.459E-07 -.459E+01   0.353E-13 0.156E-12 0.432E+01   0.981E-25 -.458E-24 0.277E+00   0.296E-12 0.147E-12 0.517E-05
   0.918E-08 -.459E-07 -.459E+01   0.228E-13 0.156E-12 0.432E+01   -.208E-24 0.271E-24 0.277E+00   -.310E-12 0.211E-12 0.517E-05
   0.918E-08 -.459E-07 -.459E+01   -.222E-15 0.124E-12 0.432E+01   -.456E-25 0.356E-24 0.277E+00   0.708E-13 -.935E-13 0.517E-05
   0.918E-08 -.459E-07 -.459E+01   0.157E-13 0.128E-12 0.432E+01   0.241E-24 -.414E-24 0.277E+00   -.979E-13 -.175E-12 0.517E-05
   -.459E-07 0.918E-08 -.459E+01   0.217E-12 -.604E-13 0.432E+01   0.383E-24 0.517E-25 0.277E+00   -.352E-12 0.171E-12 0.517E-05
   -.459E-07 0.918E-08 -.459E+01   0.224E-12 -.107E-13 0.432E+01   -.459E-24 0.116E-24 0.277E+00   0.210E-12 0.332E-12 0.517E-05
   -.459E-07 0.919E-08 -.459E+01   0.192E-12 -.391E-13 0.432E+01   -.314E-24 0.258E-25 0.277E+00   -.274E-12 -.226E-12 0.517E-05
   -.459E-07 0.918E-08 -.459E+01   0.210E-12 0.355E-14 0.432E+01   0.535E-24 -.194E-24 0.277E+00   0.162E-12 -.310E-12 0.517E-05
   0.918E-08 -.459E-07 -.459E+01   -.711E-14 0.116E-12 0.432E+01   0.126E-24 -.233E-24 0.277E+00   -.111E-12 0.186E-12 0.517E-05
   0.918E-08 -.460E-07 -.459E+01   -.711E-14 0.147E-12 0.432E+01   -.747E-26 0.310E-24 0.277E+00   0.572E-13 0.277E-12 0.517E-05
   0.918E-08 -.459E-07 -.459E+01   0.000E+00 0.149E-12 0.432E+01   0.164E-24 0.284E-24 0.277E+00   -.199E-12 -.680E-13 0.517E-05
   0.918E-08 -.459E-07 -.459E+01   0.142E-13 0.993E-13 0.432E+01   0.100E-24 -.336E-24 0.277E+00   0.903E-13 -.100E-12 0.517E-05
   -.459E-07 0.918E-08 -.459E+01   0.207E-12 -.316E-13 0.432E+01   -.372E-24 0.258E-25 0.277E+00   -.163E-12 0.148E-12 0.517E-05
   -.459E-07 0.920E-08 -.459E+01   0.210E-12 -.601E-13 0.432E+01   0.139E-25 -.129E-24 0.277E+00   0.894E-13 0.217E-12 0.517E-05
   -.459E-07 0.919E-08 -.459E+01   0.181E-12 -.654E-13 0.432E+01   0.689E-24 0.000E+00 0.277E+00   -.776E-13 -.255E-12 0.517E-05
   -.459E-07 0.915E-08 -.459E+01   0.227E-12 -.867E-14 0.432E+01   -.140E-24 0.103E-24 0.277E+00   0.757E-13 -.233E-12 0.517E-05
 -----------------------------------------------------------------------------------------------
   -.690E-06 -.690E-06 -.969E+01   -.590E-13 -.308E-13 0.118E-11   -.167E-14 -.444E-15 0.968E+01   -.393E-11 0.511E-12 -.734E-04
 
 
 POSITION                                       TOTAL-FORCE (eV/Angst)
 -----------------------------------------------------------------------------------
      1.33647      1.32550      1.29280         0.000411     -0.000158     -0.000321
      6.59264      1.36674      1.29280         0.000411     -0.000158     -0.000321
      1.37771      6.58167      1.29280         0.000411     -0.000158     -0.000321
      6.63388      6.62291      1.29280         0.000411     -0.000158     -0.000321
      3.96094      3.97191      1.29280        -0.000411      0.000158     -0.000321
      9.21711      4.01315      1.29280        -0.000411      0.000158     -0.000321
      4.00218      9.22808      1.29280        -0.000411      0.000158     -0.000321
      9.25835      9.26932      1.29280        -0.000411      0.000158     -0.000321
      1.34383      3.94032      9.10437         0.000158     -0.000411     -0.000321
      6.59999      3.98156      9.10437         0.000158     -0.000411     -0.000321
      1.38507      9.19648      9.10437         0.000158     -0.000411     -0.000321
      6.64124      9.23773      9.10437         0.000158     -0.000411     -0.000321
      3.95358      1.35709      9.10437        -0.000158      0.000411     -0.000321
      9.20975      1.39834      9.10437        -0.000158      0.000411     -0.000321
      3.99483      6.61326      9.10437        -0.000158      0.000411     -0.000321
      9.25099      6.65450      9.10437        -0.000158      0.000411     -0.000321
      1.31223      1.32321      6.50052        -0.000411      0.000158     -0.000321
      6.56840      1.36445      6.50052        -0.000411      0.000158     -0.000321
      1.35348      6.57937      6.50052        -0.000411      0.000158     -0.000321
      6.60964      6.62062      6.50052        -0.000411      0.000158     -0.000321
      3.98518      3.97420      6.50052         0.000411     -0.000158     -0.000321
      9.24134      4.01545      6.50052         0.000411     -0.000158     -0.000321
      4.02642      9.23037      6.50052         0.000411     -0.000158     -0.000321
      9.28259      9.27161      6.50052         0.000411     -0.000158     -0.000321
      3.95129      1.33286      3.89666         0.000158     -0.000411     -0.000321
      9.20746      1.37410      3.89666         0.000158     -0.000411     -0.000321
      3.99253      6.58902      3.89666         0.000158     -0.000411     -0.000321
      9.24870      6.63027      3.89666         0.000158     -0.000411     -0.000321
      1.34612      3.96455      3.89666        -0.000158      0.000411     -0.000321
      6.60229      4.00580      3.89666        -0.000158      0.000411     -0.000321
      1.38736      9.22072      3.89666        -0.000158      0.000411     -0.000321
      6.64353      9.26196      3.89666        -0.000158      0.000411     -0.000321
      0.00000      0.00000      5.21548         0.000000     -0.000000     -0.000025
      5.25617      0.04124      5.21548         0.000000     -0.000000     -0.000025
      0.04124      5.25617      5.21548         0.000000     -0.000000     -0.000025
      5.29741      5.29741      5.21548         0.000000     -0.000000     -0.000025
      2.62808      0.02062      2.61163         0.000000     -0.000000     -0.000025
      7.88425      0.06187      2.61163         0.000000     -0.000000     -0.000025
      2.66933      5.27679      2.61163         0.000000     -0.000000     -0.000025
      7.92549      5.31803      2.61163         0.000000     -0.000000     -0.000025
      2.64871      2.64871      0.00777         0.000000     -0.000000     -0.000025
      7.90487      2.68995      0.00777         0.000000     -0.000000     -0.000025
      2.68995      7.90487      0.00777         0.000000     -0.000000     -0.000025
      7.94612      7.94612      0.00777         0.000000     -0.000000     -0.000025
      0.02062      2.62808      7.81934         0.000000     -0.000000     -0.000025
      5.27679      2.66933      7.81934         0.000000     -0.000000     -0.000025
      0.06187      7.88425      7.81934         0.000000     -0.000000     -0.000025
      5.31803      7.92549      7.81934         0.000000     -0.000000     -0.000025
      0.00000      0.00000      0.01048         0.000000     -0.000000      0.000667
      5.25617      0.04124      0.01048         0.000000     -0.000000      0.000667
      0.04124      5.25617      0.01048         0.000000     -0.000000      0.000667
      5.29741      5.29741      0.01048         0.000000     -0.000000      0.000667
      2.62808      0.02062      7.82205         0.000000     -0.000000      0.000667
      7.88425      0.06187      7.82205         0.000000     -0.000000      0.000667
      2.66933      5.27679      7.82205         0.000000     -0.000000      0.000667
      7.92549      5.31803      7.82205         0.000000     -0.000000      0.000667
      2.64871      2.64871      5.21819         0.000000     -0.000000      0.000667
      7.90487      2.68995      5.21819         0.000000     -0.000000      0.000667
      2.68995      7.90487      5.21819         0.000000     -0.000000      0.000667
      7.94612      7.94612      5.21819         0.000000     -0.000000      0.000667
      0.02062      2.62808      2.61433         0.000000     -0.000000      0.000667
      5.27679      2.66933      2.61433         0.000000     -0.000000      0.000667
      0.06187      7.88425      2.61433         0.000000     -0.000000      0.000667
      5.31803      7.92549      2.61433         0.000000     -0.000000      0.000667
 -----------------------------------------------------------------------------------
    total drift:                               -0.000001     -0.000001     -0.011421


--------------------------------------------------------------------------------------------------------



  FREE ENERGIE OF THE ION-ELECTRON SYSTEM (eV)
  ---------------------------------------------------
  free  energy   TOTEN  =      -328.09814477 eV

  energy  without entropy=     -328.09814477  energy(sigma->0) =     -328.09814477
 


--------------------------------------------------------------------------------------------------------


    POTLOK:  cpu time    0.1401: real time    0.1407


--------------------------------------------------------------------------------------------------------


 writing wavefunctions
     LOOP+:  cpu time 2056.2296: real time 2317.1096
    4ORBIT:  cpu time    0.0000: real time    0.0000
 


 total charge     
 
# of ion       s       p       d       tot
------------------------------------------
    1        1.313   2.410   0.000   3.724
    2        1.313   2.410   0.000   3.724
    3        1.313   2.410   0.000   3.724
    4        1.313   2.410   0.000   3.724
    5        1.313   2.410   0.000   3.724
    6        1.313   2.410   0.000   3.724
    7        1.313   2.410   0.000   3.724
    8        1.313   2.410   0.000   3.724
    9        1.313   2.410   0.000   3.724
   10        1.313   2.410   0.000   3.724
   11        1.313   2.410   0.000   3.724
   12        1.313   2.410   0.000   3.724
   13        1.313   2.410   0.000   3.724
   14        1.313   2.410   0.000   3.724
   15        1.313   2.410   0.000   3.724
   16        1.313   2.410   0.000   3.724
   17        1.313   2.410   0.000   3.724
   18        1.313   2.410   0.000   3.724
   19        1.313   2.410   0.000   3.724
   20        1.313   2.410   0.000   3.724
   21        1.313   2.410   0.000   3.724
   22        1.313   2.410   0.000   3.724
   23        1.313   2.410   0.000   3.724
   24        1.313   2.410   0.000   3.724
   25        1.313   2.410   0.000   3.724
   26        1.313   2.410   0.000   3.724
   27        1.313   2.410   0.000   3.724
   28        1.313   2.410   0.000   3.724
   29        1.313   2.410   0.000   3.724
   30        1.313   2.410   0.000   3.724
   31        1.313   2.410   0.000   3.724
   32        1.313   2.410   0.000   3.724
   33        0.260   6.202   8.916  15.378
   34        0.260   6.202   8.916  15.378
   35        0.260   6.202   8.916  15.378
   36        0.260   6.202   8.916  15.378
   37        0.260   6.202   8.917  15.378
   38        0.260   6.202   8.917  15.378
   39        0.260   6.202   8.917  15.378
   40        0.260   6.202   8.917  15.378
   41        0.260   6.202   8.916  15.378
   42        0.260   6.202   8.916  15.378
   43        0.260   6.202   8.916  15.378
   44        0.260   6.202   8.916  15.378
   45        0.260   6.202   8.917  15.378
   46        0.260   6.202   8.917  15.378
   47        0.260   6.202   8.917  15.378
   48        0.260   6.202   8.917  15.378
   49        0.350   6.351   5.820  12.521
   50        0.350   6.351   5.820  12.521
   51        0.350   6.351   5.820  12.521
   52        0.350   6.351   5.820  12.521
   53        0.350   6.351   5.820  12.521
   54        0.350   6.351   5.820  12.521
   55        0.350   6.351   5.820  12.521
   56        0.350   6.351   5.820  12.521
   57        0.350   6.351   5.820  12.521
   58        0.350   6.351   5.820  12.521
   59        0.350   6.351   5.820  12.521
   60        0.350   6.351   5.820  12.521
   61        0.350   6.351   5.820  12.521
   62        0.350   6.351   5.820  12.521
   63        0.350   6.351   5.820  12.521
   64        0.350   6.351   5.820  12.521
--------------------------------------------------
tot         51.790 277.978 235.780 565.548
 


 magnetization (x)
 
# of ion       s       p       d       tot
------------------------------------------
    1       -0.000  -0.004   0.000  -0.004
    2       -0.000  -0.004   0.000  -0.004
    3       -0.000  -0.004   0.000  -0.004
    4       -0.000  -0.004   0.000  -0.004
    5       -0.000  -0.004   0.000  -0.004
    6       -0.000  -0.004   0.000  -0.004
    7       -0.000  -0.004   0.000  -0.004
    8       -0.000  -0.004   0.000  -0.004
    9        0.000   0.004   0.000   0.004
   10        0.000   0.004   0.000   0.004
   11        0.000   0.004   0.000   0.004
   12        0.000   0.004   0.000   0.004
   13        0.000   0.004   0.000   0.004
   14        0.000   0.004   0.000   0.004
   15        0.000   0.004   0.000   0.004
   16        0.000   0.004   0.000   0.004
   17       -0.000  -0.004   0.000  -0.004
   18       -0.000  -0.004   0.000  -0.004
   19       -0.000  -0.004   0.000  -0.004
   20       -0.000  -0.004   0.000  -0.004
   21       -0.000  -0.004   0.000  -0.004
   22       -0.000  -0.004   0.000  -0.004
   23       -0.000  -0.004   0.000  -0.004
   24       -0.000  -0.004   0.000  -0.004
   25        0.000   0.004   0.000   0.004
   26        0.000   0.004   0.000   0.004
   27        0.000   0.004   0.000   0.004
   28        0.000   0.004   0.000   0.004
   29        0.000   0.004   0.000   0.004
   30        0.000   0.004   0.000   0.004
   31        0.000   0.004   0.000   0.004
   32        0.000   0.004   0.000   0.004
   33        0.000   0.000  -0.001   0.000
   34        0.000   0.000  -0.001   0.000
   35        0.000   0.000  -0.001   0.000
   36        0.000   0.000  -0.001   0.000
   37       -0.000  -0.000   0.001  -0.000
   38       -0.000  -0.000   0.001  -0.000
   39       -0.000  -0.000   0.001  -0.000
   40       -0.000  -0.000   0.001  -0.000
   41        0.000   0.000  -0.001   0.000
   42        0.000   0.000  -0.001   0.000
   43        0.000   0.000  -0.001   0.000
   44        0.000   0.000  -0.001   0.000
   45       -0.000  -0.000   0.001  -0.000
   46       -0.000  -0.000   0.001  -0.000
   47       -0.000  -0.000   0.001  -0.000
   48       -0.000  -0.000   0.001  -0.000
   49        0.020   0.054   3.671   3.744
   50        0.020   0.054   3.671   3.744
   51        0.020   0.054   3.671   3.744
   52        0.020   0.054   3.671   3.744
   53       -0.020  -0.054  -3.671  -3.744
   54       -0.020  -0.054  -3.671  -3.744
   55       -0.020  -0.054  -3.671  -3.744
   56       -0.020  -0.054  -3.671  -3.744
   57        0.020   0.054   3.671   3.744
   58        0.020   0.054   3.671   3.744
   59        0.020   0.054   3.671   3.744
   60        0.020   0.054   3.671   3.744
   61       -0.020  -0.054  -3.671  -3.744
   62       -0.020  -0.054  -3.671  -3.744
   63       -0.020  -0.054  -3.671  -3.744
   64       -0.020  -0.054  -3.671  -3.744
--------------------------------------------------
tot         -0.000   0.000  -0.000  -0.000
 

 total amount of memory used by VASP MPI-rank0   301249. kBytes
=======================================================================

   base      :      30000. kBytes
   nonl-proj :     175882. kBytes
   fftplans  :       4588. kBytes
   grid      :      69719. kBytes
   one-center:       1990. kBytes
   wavefun   :      19070. kBytes
 
  
  
 General timing and accounting informations for this job:
 ========================================================
  
                  Total CPU time used (sec):     2106.872
                            User time (sec):     2094.375
                          System time (sec):       12.497
                         Elapsed time (sec):     2369.755
  
                   Maximum memory used (kb):      654352.
                   Average memory used (kb):           0.
  
                          Minor page faults:       523057
                          Major page faults:         5484
                 Voluntary context switches:         8021
