       N       E                     dE             d eps       ncg     rms          rms(c)
DAV:   1     0.605841321609E+04    0.60584E+04   -0.51560E+05 12288   0.196E+03
DAV:   2    -0.731152535044E+02   -0.61315E+04   -0.60218E+04 13312   0.446E+02
DAV:   3    -0.324114779692E+03   -0.25100E+03   -0.25002E+03 16896   0.977E+01
DAV:   4    -0.327616978613E+03   -0.35022E+01   -0.35020E+01 13824   0.117E+01
DAV:   5    -0.327719787846E+03   -0.10281E+00   -0.10281E+00 17408   0.197E+00    0.254E-01
DAV:   6    -0.327724846484E+03   -0.50586E-02   -0.50772E-02 15872   0.434E-01    0.985E-02
DAV:   7    -0.327725123052E+03   -0.27657E-03   -0.32235E-03 16640   0.137E-01    0.881E-02
DAV:   8    -0.327725134118E+03   -0.11066E-04   -0.35164E-04 15616   0.518E-02    0.757E-02
DAV:   9    -0.327725134422E+03   -0.30399E-06   -0.18842E-05 16384   0.110E-02    0.673E-02
DAV:  10    -0.327725134238E+03    0.18375E-06   -0.14024E-06 17664   0.248E-03    0.572E-02
DAV:  11    -0.327725133428E+03    0.81070E-06   -0.18443E-06 15616   0.367E-03    0.232E-02
DAV:  12    -0.327725133038E+03    0.38958E-06   -0.14145E-06 17920   0.270E-03    0.300E-03
DAV:  13    -0.327725133051E+03   -0.12515E-07   -0.10002E-07 14336   0.492E-04    0.351E-03
DAV:  14    -0.327725133087E+03   -0.36787E-07   -0.11136E-07 11776   0.430E-04    0.183E-03
DAV:  15    -0.327725133085E+03    0.27067E-08   -0.26217E-08 11776   0.236E-04
   1 F= -.32772513E+03 E0= -.32772513E+03  d E =0.000000E+00  mag=    -0.0000
