 vasp.5.4.4.18Apr17-6-g9f103f2a35 (build Oct 30 2023 17:30:16) complex          
  
 executed on             LinuxIFC date 2024.06.29  18:38:21
 running on  256 total cores
 distrk:  each k-point on  256 cores,    1 groups
 distr:  one band on NCORES_PER_BAND=   1 cores,  256 groups


--------------------------------------------------------------------------------------------------------


 INCAR:
 POTCAR:    PAW_PBE S 06Sep2000                   
 POTCAR:     PAW_PBE Cu_pv 06Sep2000              
 POTCAR:     PAW_PBE Fe_pv 02Aug2007              

 ----------------------------------------------------------------------------- 
|                                                                             |
|           W    W    AA    RRRRR   N    N  II  N    N   GGGG   !!!           |
|           W    W   A  A   R    R  NN   N  II  NN   N  G    G  !!!           |
|           W    W  A    A  R    R  N N  N  II  N N  N  G       !!!           |
|           W WW W  AAAAAA  RRRRR   N  N N  II  N  N N  G  GGG   !            |
|           WW  WW  A    A  R   R   N   NN  II  N   NN  G    G                |
|           W    W  A    A  R    R  N    N  II  N    N   GGGG   !!!           |
|                                                                             |
|      For optimal performance we recommend to set                            |
|        NCORE= 4 - approx SQRT( number of cores)                             |
|      NCORE specifies how many cores store one orbital (NPAR=cpu/NCORE).     |
|      This setting can  greatly improve the performance of VASP for DFT.     |
|      The default,   NCORE=1            might be grossly inefficient         |
|      on modern multi-core architectures or massively parallel machines.     |
|      Do your own testing !!!!                                               |
|      Unfortunately you need to use the default for GW and RPA calculations. |
|      (for HF NCORE is supported but not extensively tested yet)             |
|                                                                             |
 ----------------------------------------------------------------------------- 

 POTCAR:    PAW_PBE S 06Sep2000                   
   SHA256 =  0fc7481fb0695f01bdc6462160264c5c84044ae9ec85a907d398b887a2bc3132 S/
   COPYR  = (c) Copyright 06Sep2000 Georg Kresse                                
   COPYR  = This file is part of the software VASP. Any use, copying, and all ot
   COPYR  = If you do not have a valid VASP license, you may not use, copy or di
   VRHFIN =S : s2p4                                                             
   LEXCH  = PE                                                                  
   EATOM  =   276.8230 eV,   20.3459 Ry                                         
                                                                                
   TITEL  = PAW_PBE S 06Sep2000                                                 
   LULTRA =        F    use ultrasoft PP ?                                      
   IUNSCR =        1    unscreen: 0-lin 1-nonlin 2-no                           
   RPACOR =    1.500    partial core radius                                     
   POMASS =   32.066; ZVAL   =    6.000    mass and valenz                      
   RCORE  =    1.900    outmost cutoff radius                                   
   RWIGS  =    2.200; RWIGS  =    1.164    wigner-seitz radius (au A)           
   ENMAX  =  258.689; ENMIN  =  194.016 eV                                      
   ICORE  =        2    local potential                                         
   LCOR   =        T    correct aug charges                                     
   LPAW   =        T    paw PP                                                  
   EAUG   =  335.092                                                            
   DEXC   =    0.000                                                            
   RMAX   =    1.942    core radius for proj-oper                               
   RAUG   =    1.300    factor for augmentation sphere                          
   RDEP   =    1.954    radius for radial grids                                 
   RDEPT  =    1.744    core radius for aug-charge                              
                                                                                
   Atomic configuration                                                         
    6 entries                                                                   
     n  l   j            E        occ.                                          
     1  0  0.50     -2405.8406   2.0000                                         
     2  0  0.50      -211.7007   2.0000                                         
     2  1  1.50      -156.4958   6.0000                                         
     3  0  0.50       -17.2562   2.0000                                         
     3  1  0.50        -7.0085   4.0000                                         
     3  2  1.50        -6.8029   0.0000                                         
   Description                                                                  
     l       E           TYP  RCUT    TYP  RCUT                                 
     0    -17.2561641     23  1.900                                             
     0    -15.8743224     23  1.900                                             
     1     -7.0085400     23  1.900                                             
     1     -2.7779785     23  1.900                                             
     2     -6.8029130     23  1.900                                             
  local pseudopotential read in
  partial core-charges read in
  partial kinetic energy density read in
  atomic valenz-charges read in
  non local Contribution for L=           0  read in
    real space projection operators read in
  non local Contribution for L=           0  read in
    real space projection operators read in
  non local Contribution for L=           1  read in
    real space projection operators read in
  non local Contribution for L=           1  read in
    real space projection operators read in
    PAW grid and wavefunctions read in
 
   number of l-projection  operators is LMAX  =           4
   number of lm-projection operators is LMMAX =           8
 
 POTCAR:     PAW_PBE Cu_pv 06Sep2000              
   SHA256 =  cb7b504e2ea725fe1f25c85a9ac77d4012ce94cd394135b722c4e25ec297f1cb Cu
   COPYR  = (c) Copyright 06Sep2000 Georg Kresse                                
   COPYR  = This file is part of the software VASP. Any use, copying, and all ot
   COPYR  = If you do not have a valid VASP license, you may not use, copy or di
   VRHFIN =Cu: d10 p1                                                           
   LEXCH  = PE                                                                  
   EATOM  =  4120.1201 eV,  302.8203 Ry                                         
                                                                                
   TITEL  = PAW_PBE Cu_pv 06Sep2000                                             
   LULTRA =        F    use ultrasoft PP ?                                      
   IUNSCR =        1    unscreen: 0-lin 1-nonlin 2-no                           
   RPACOR =    1.500    partial core radius                                     
   POMASS =   63.546; ZVAL   =   17.000    mass and valenz                      
   RCORE  =    2.000    outmost cutoff radius                                   
   RWIGS  =    2.000; RWIGS  =    1.058    wigner-seitz radius (au A)           
   ENMAX  =  368.648; ENMIN  =  276.486 eV                                      
   RCLOC  =    1.304    cutoff for local pot                                    
   LCOR   =        T    correct aug charges                                     
   LPAW   =        T    paw PP                                                  
   EAUG   =  758.233                                                            
   DEXC   =    0.000                                                            
   RMAX   =    2.046    core radius for proj-oper                               
   RAUG   =    1.300    factor for augmentation sphere                          
   RDEP   =    2.025    radius for radial grids                                 
   RDEPT  =    1.558    core radius for aug-charge                              
                                                                                
   Atomic configuration                                                         
    8 entries                                                                   
     n  l   j            E        occ.                                          
     1  0  0.50     -8850.2467   2.0000                                         
     2  0  0.50     -1062.3498   2.0000                                         
     2  1  1.50      -916.8226   6.0000                                         
     3  0  0.50      -114.6929   2.0000                                         
     3  1  1.50       -72.1325   6.0000                                         
     3  2  2.50        -5.0394  10.0000                                         
     4  0  0.50        -4.6097   1.0000                                         
     4  3  2.50        -1.3606   0.0000                                         
   Description                                                                  
     l       E           TYP  RCUT    TYP  RCUT                                 
     1    -72.1324777     23  1.700                                             
     1     -1.3605826     23  1.700                                             
     2     -5.0393776     23  2.000                                             
     2     -6.3999602     23  2.000                                             
     0     -4.6097062     23  1.800                                             
     0     14.1620818     23  1.800                                             
  local pseudopotential read in
  partial core-charges read in
  partial kinetic energy density read in
  atomic valenz-charges read in
  non local Contribution for L=           1  read in
    real space projection operators read in
  non local Contribution for L=           1  read in
    real space projection operators read in
  non local Contribution for L=           2  read in
    real space projection operators read in
  non local Contribution for L=           2  read in
    real space projection operators read in
  non local Contribution for L=           0  read in
    real space projection operators read in
  non local Contribution for L=           0  read in
    real space projection operators read in
    PAW grid and wavefunctions read in
 
   number of l-projection  operators is LMAX  =           6
   number of lm-projection operators is LMMAX =          18
 
 POTCAR:     PAW_PBE Fe_pv 02Aug2007              
   SHA256 =  5d22e414b1f82158bf2c7ecb8b97b28fd0923e48cadc1c3bf74d524558f5dd32 Fe
   COPYR  = (c) Copyright 02Aug2007 Georg Kresse                                
   COPYR  = This file is part of the software VASP. Any use, copying, and all ot
   COPYR  = If you do not have a valid VASP license, you may not use, copy or di
   VRHFIN =Fe:  3pd7s1                                                          
   LEXCH  = PE                                                                  
   EATOM  =  2457.4239 eV,  180.6156 Ry                                         
                                                                                
   TITEL  = PAW_PBE Fe_pv 02Aug2007                                             
   LULTRA =        F    use ultrasoft PP ?                                      
   IUNSCR =        1    unscreen: 0-lin 1-nonlin 2-no                           
   RPACOR =    1.750    partial core radius                                     
   POMASS =   55.847; ZVAL   =   14.000    mass and valenz                      
   RCORE  =    2.200    outmost cutoff radius                                   
   RWIGS  =    2.200; RWIGS  =    1.164    wigner-seitz radius (au A)           
   ENMAX  =  293.238; ENMIN  =  219.928 eV                                      
   ICORE  =        3    local potential                                         
   LCOR   =        T    correct aug charges                                     
   LPAW   =        T    paw PP                                                  
   EAUG   =  578.342                                                            
   DEXC   =    0.000                                                            
   RMAX   =    2.249    core radius for proj-oper                               
   RAUG   =    1.300    factor for augmentation sphere                          
   RDEP   =    2.296    radius for radial grids                                 
   RDEPT  =    1.766    core radius for aug-charge                              
                                                                                
   Atomic configuration                                                         
    8 entries                                                                   
     n  l   j            E        occ.                                          
     1  0  0.50     -6993.8440   2.0000                                         
     2  0  0.50      -814.6047   2.0000                                         
     2  1  1.50      -693.3689   6.0000                                         
     3  0  0.50       -89.4732   2.0000                                         
     3  1  1.50       -55.6373   6.0000                                         
     3  2  2.50        -3.8151   7.0000                                         
     4  0  0.50        -4.2551   1.0000                                         
     4  3  2.50        -1.3606   0.0000                                         
   Description                                                                  
     l       E           TYP  RCUT    TYP  RCUT                                 
     1    -55.6372668     23  2.000                                             
     1     -5.4423304     23  2.000                                             
     2     -3.8151096     23  2.200                                             
     2     -5.1756922     23  2.200                                             
     0     -4.2550951     23  2.200                                             
     0     27.2116520     23  2.200                                             
     3     -1.3605826     23  2.200                                             
  local pseudopotential read in
  partial core-charges read in
  partial kinetic energy density read in
  atomic valenz-charges read in
  non local Contribution for L=           1  read in
    real space projection operators read in
  non local Contribution for L=           1  read in
    real space projection operators read in
  non local Contribution for L=           2  read in
    real space projection operators read in
  non local Contribution for L=           2  read in
    real space projection operators read in
  non local Contribution for L=           0  read in
    real space projection operators read in
  non local Contribution for L=           0  read in
    real space projection operators read in
    PAW grid and wavefunctions read in
 
   number of l-projection  operators is LMAX  =           6
   number of lm-projection operators is LMMAX =          18
 

 ----------------------------------------------------------------------------- 
|                                                                             |
|  ADVICE TO THIS USER RUNNING 'VASP/VAMP'   (HEAR YOUR MASTER'S VOICE ...):  |
|                                                                             |
|      You have a (more or less) 'large supercell' and for larger cells       |
|      it might be more efficient to use real space projection opertators     |
|      So try LREAL= Auto  in the INCAR   file.                               |
|      Mind:          For very  accurate calculation you might also keep the  |
|      reciprocal projection scheme          (i.e. LREAL=.FALSE.)             |
|                                                                             |
 ----------------------------------------------------------------------------- 


 ----------------------------------------------------------------------------- 
|                                                                             |
|  ADVICE TO THIS USER RUNNING 'VASP/VAMP'   (HEAR YOUR MASTER'S VOICE ...):  |
|                                                                             |
|      You enforced a specific xc-type in the INCAR file,                     |
|      a different type was found on the POTCAR file                          |
|          I HOPE YOU KNOW, WHAT YOU ARE  DOING                               |
|                                                                             |
 ----------------------------------------------------------------------------- 

  PAW_PBE S 06Sep2000                   :
 energy of atom  1       EATOM= -276.8230
 kinetic energy error for atom=    0.0007 (will be added to EATOM!!)
   PAW_PBE Cu_pv 06Sep2000              :
 energy of atom  2       EATOM=-4120.1201
 kinetic energy error for atom=    0.0094 (will be added to EATOM!!)
   PAW_PBE Fe_pv 02Aug2007              :
 energy of atom  3       EATOM=-2457.4239
 kinetic energy error for atom=    0.0025 (will be added to EATOM!!)
 
 
 POSCAR: Fe16 Cu16 S32                           
  positions in direct lattice
  velocities in cartesian coordinates
 exchange correlation table for  LEXCH =       14
   RHO(1)=    0.500       N(1)  =     2000
   RHO(2)=  100.500       N(2)  =     4000
 


--------------------------------------------------------------------------------------------------------


 ion  position               nearest neighbor table
   1  0.126  0.125  0.122-  37 2.26  41 2.27  61 2.27  49 2.28
   2  0.626  0.125  0.122-  38 2.26  42 2.27  62 2.27  50 2.28
   3  0.126  0.625  0.122-  39 2.26  43 2.27  63 2.27  51 2.28
   4  0.626  0.625  0.122-  40 2.26  44 2.27  64 2.27  52 2.28
   5  0.374  0.375  0.122-  39 2.26  41 2.27  62 2.27  52 2.28
   6  0.874  0.375  0.122-  40 2.26  42 2.27  61 2.27  51 2.28
   7  0.374  0.875  0.122-  37 2.26  43 2.27  64 2.27  50 2.28
   8  0.874  0.875  0.122-  38 2.26  44 2.27  63 2.27  49 2.28
   9  0.125  0.374  0.872-  41 2.26  45 2.27  51 2.27  55 2.28
  10  0.625  0.374  0.872-  42 2.26  46 2.27  52 2.27  56 2.28
  11  0.125  0.874  0.872-  43 2.26  47 2.27  49 2.27  53 2.28
  12  0.625  0.874  0.872-  44 2.26  48 2.27  50 2.27  54 2.28
  13  0.375  0.126  0.872-  41 2.26  46 2.27  50 2.27  53 2.28
  14  0.875  0.126  0.872-  42 2.26  45 2.27  49 2.27  54 2.28
  15  0.375  0.626  0.872-  43 2.26  48 2.27  52 2.27  55 2.28
  16  0.875  0.626  0.872-  44 2.26  47 2.27  51 2.27  56 2.28
  17  0.124  0.125  0.622-  45 2.26  33 2.27  53 2.27  57 2.28
  18  0.624  0.125  0.622-  46 2.26  34 2.27  54 2.27  58 2.28
  19  0.124  0.625  0.622-  47 2.26  35 2.27  55 2.27  59 2.28
  20  0.624  0.625  0.622-  48 2.26  36 2.27  56 2.27  60 2.28
  21  0.376  0.375  0.622-  46 2.26  36 2.27  55 2.27  57 2.28
  22  0.876  0.375  0.622-  45 2.26  35 2.27  56 2.27  58 2.28
  23  0.376  0.875  0.622-  48 2.26  34 2.27  53 2.27  59 2.28
  24  0.876  0.875  0.622-  47 2.26  33 2.27  54 2.27  60 2.28
  25  0.375  0.124  0.372-  34 2.26  37 2.27  57 2.27  62 2.28
  26  0.875  0.124  0.372-  33 2.26  38 2.27  58 2.27  61 2.28
  27  0.375  0.624  0.372-  36 2.26  39 2.27  59 2.27  64 2.28
  28  0.875  0.624  0.372-  35 2.26  40 2.27  60 2.27  63 2.28
  29  0.125  0.376  0.372-  35 2.26  39 2.27  57 2.27  61 2.28
  30  0.625  0.376  0.372-  36 2.26  40 2.27  58 2.27  62 2.28
  31  0.125  0.876  0.372-  33 2.26  37 2.27  59 2.27  63 2.28
  32  0.625  0.876  0.372-  34 2.26  38 2.27  60 2.27  64 2.28
  33  0.000  0.000  0.503-  26 2.26  31 2.26  17 2.27  24 2.27
  34  0.500  0.000  0.503-  25 2.26  32 2.26  18 2.27  23 2.27
  35  0.000  0.500  0.503-  28 2.26  29 2.26  19 2.27  22 2.27
  36  0.500  0.500  0.503-  27 2.26  30 2.26  20 2.27  21 2.27
  37  0.250  0.000  0.253-   1 2.26   7 2.26  25 2.27  31 2.27
  38  0.750  0.000  0.253-   2 2.26   8 2.26  26 2.27  32 2.27
  39  0.250  0.500  0.253-   3 2.26   5 2.26  27 2.27  29 2.27
  40  0.750  0.500  0.253-   4 2.26   6 2.26  28 2.27  30 2.27
  41  0.250  0.250  0.003-   9 2.26  13 2.26   1 2.27   5 2.27
  42  0.750  0.250  0.003-  10 2.26  14 2.26   2 2.27   6 2.27
  43  0.250  0.750  0.003-  11 2.26  15 2.26   3 2.27   7 2.27
  44  0.750  0.750  0.003-  12 2.26  16 2.26   4 2.27   8 2.27
  45  0.000  0.250  0.753-  17 2.26  22 2.26   9 2.27  14 2.27
  46  0.500  0.250  0.753-  18 2.26  21 2.26  10 2.27  13 2.27
  47  0.000  0.750  0.753-  19 2.26  24 2.26  11 2.27  16 2.27
  48  0.500  0.750  0.753-  20 2.26  23 2.26  12 2.27  15 2.27
  49  0.000  0.000  0.004-  11 2.27  14 2.27   1 2.28   8 2.28
  50  0.500  0.000  0.004-  12 2.27  13 2.27   2 2.28   7 2.28
  51  0.000  0.500  0.004-   9 2.27  16 2.27   3 2.28   6 2.28
  52  0.500  0.500  0.004-  10 2.27  15 2.27   4 2.28   5 2.28
  53  0.250  0.000  0.754-  17 2.27  23 2.27  11 2.28  13 2.28
  54  0.750  0.000  0.754-  18 2.27  24 2.27  12 2.28  14 2.28
  55  0.250  0.500  0.754-  19 2.27  21 2.27   9 2.28  15 2.28
  56  0.750  0.500  0.754-  20 2.27  22 2.27  10 2.28  16 2.28
  57  0.250  0.250  0.504-  25 2.27  29 2.27  17 2.28  21 2.28
  58  0.750  0.250  0.504-  26 2.27  30 2.27  18 2.28  22 2.28
  59  0.250  0.750  0.504-  27 2.27  31 2.27  19 2.28  23 2.28
  60  0.750  0.750  0.504-  28 2.27  32 2.27  20 2.28  24 2.28
  61  0.000  0.250  0.254-   1 2.27   6 2.27  26 2.28  29 2.28
  62  0.500  0.250  0.254-   2 2.27   5 2.27  25 2.28  30 2.28
  63  0.000  0.750  0.254-   3 2.27   8 2.27  28 2.28  31 2.28
  64  0.500  0.750  0.254-   4 2.27   7 2.27  27 2.28  32 2.28
 
  LATTYP: Found a base centered orthorhombic cell.
 ALAT       =    14.3983147537
 B/A-ratio  =     1.0630151066
 C/A-ratio  =     0.7242067685
  
  Lattice vectors:
  
 A1 = (  10.5019290000,   0.3207830000,   0.0000000000)
 A2 = (  -0.3207830000, -10.5019290000,   0.0000000000)
 A3 = (   0.0000000000,   0.0000000000, -10.4273570000)


Analysis of symmetry for initial positions (statically):
=====================================================================
 Subroutine PRICEL returns following result:
 
  LATTYP: Found a face centered orthorhombic cell.
 ALAT       =     7.1991573769
 B/A-ratio  =     1.0630151066
 C/A-ratio  =     1.4484135371
  
  Lattice vectors:
  
 A1 = (  -2.7056780000,  -2.7056780000,   5.2136785000)
 A2 = (  -2.5452865000,   2.5452865000,   5.2136785000)
 A3 = (  -5.2509645000,  -0.1603915000,   0.0000000000)
 
   8 primitive cells build up your supercell.
 

 Routine SETGRP: Setting up the symmetry group for a 
 base centered orthorhombic supercell.


 Subroutine GETGRP returns: Found  4 space group operations
 (whereof  2 operations were pure point group operations)
 out of a pool of  8 trial point group operations.


The static configuration has the point symmetry C_2 .
 The point group associated with its full space group is C_2v.


Analysis of symmetry for dynamics (positions and initial velocities):
=====================================================================
 Subroutine PRICEL returns following result:
 
  LATTYP: Found a face centered orthorhombic cell.
 ALAT       =     7.1991573769
 B/A-ratio  =     1.0630151066
 C/A-ratio  =     1.4484135371
  
  Lattice vectors:
  
 A1 = (  -2.7056780000,  -2.7056780000,   5.2136785000)
 A2 = (  -2.5452865000,   2.5452865000,   5.2136785000)
 A3 = (  -5.2509645000,  -0.1603915000,   0.0000000000)
 
   8 primitive cells build up your supercell.
 

 Routine SETGRP: Setting up the symmetry group for a 
 base centered orthorhombic supercell.


 Subroutine GETGRP returns: Found  4 space group operations
 (whereof  2 operations were pure point group operations)
 out of a pool of  8 trial point group operations.


The dynamic configuration has the point symmetry C_2 .
 The point group associated with its full space group is C_2v.


Analysis of structural, dynamic, and magnetic symmetry:
=====================================================================
 Subroutine PRICEL returns following result:
 
  LATTYP: Found a face centered orthorhombic cell.
 ALAT       =     7.1991573769
 B/A-ratio  =     1.0630151066
 C/A-ratio  =     1.4484135371
  
  Lattice vectors:
  
 A1 = (  -2.7056780000,  -2.7056780000,   5.2136785000)
 A2 = (  -2.5452865000,   2.5452865000,   5.2136785000)
 A3 = (  -5.2509645000,  -0.1603915000,   0.0000000000)
 
   8 primitive cells build up your supercell.
 

 Routine SETGRP: Setting up the symmetry group for a 
 base centered orthorhombic supercell.


 Subroutine GETGRP returns: Found  4 space group operations
 (whereof  2 operations were pure point group operations)
 out of a pool of  8 trial point group operations.


The magnetic configuration has the point symmetry C_2 .
 The point group associated with its full space group is C_2v.


 Subroutine INISYM returns: Found  4 space group operations
 (whereof  2 operations are pure point group operations),
 and found     8 'primitive' translations

 
 
 KPOINTS: Automatic mesh                          

Automatic generation of k-mesh.
Space group operators:
 irot       det(A)        alpha          n_x          n_y          n_z        tau_x        tau_y        tau_z
    1     1.000000     0.000000     1.000000     0.000000     0.000000     0.000000     0.000000     0.000000
    2     1.000000   180.000000     0.000000     0.000000     1.000000     0.000000     0.000000     0.000000
    3    -1.000000   180.000000     0.707107     0.707107     0.000000    -0.750000    -0.000000     0.750000
    4    -1.000000   180.000000     0.707107    -0.707107     0.000000    -0.750000    -0.000000     0.750000
 
 Subroutine IBZKPT returns following result:
 ===========================================
 
 Found      6 irreducible k-points:
 
 Following reciprocal coordinates:
            Coordinates               Weight
  0.000000  0.000000  0.000000      1.000000
  0.500000  0.000000  0.000000      2.000000
  0.500000  0.500000  0.000000      1.000000
  0.000000  0.000000  0.500000      1.000000
  0.500000  0.000000  0.500000      2.000000
  0.500000  0.500000  0.500000      1.000000
 
 Following cartesian coordinates:
            Coordinates               Weight
  0.000000  0.000000  0.000000      1.000000
  0.047655 -0.001456  0.000000      2.000000
  0.046199  0.046199  0.000000      1.000000
  0.000000  0.000000  0.047951      1.000000
  0.047655 -0.001456  0.047951      2.000000
  0.046199  0.046199  0.047951      1.000000
 
 TETIRR: Found     12 inequivalent tetrahedra from       48
 
 Subroutine IBZKPT_HF returns following result:
 ==============================================
 
 Found      8 k-points in 1st BZ
 the following      8 k-points will be used (e.g. in the exchange kernel)
 Following reciprocal coordinates:   # in IRBZ
  0.000000  0.000000  0.000000    0.12500000   1 t-inv F
  0.500000  0.000000  0.000000    0.12500000   2 t-inv F
  0.500000  0.500000  0.000000    0.12500000   3 t-inv F
  0.000000  0.000000  0.500000    0.12500000   4 t-inv F
  0.500000  0.000000  0.500000    0.12500000   5 t-inv F
  0.500000  0.500000  0.500000    0.12500000   6 t-inv F
 -0.000000 -0.500000  0.000000    0.12500000   2 t-inv F spinflp
 -0.000000 -0.500000  0.500000    0.12500000   5 t-inv F spinflp


--------------------------------------------------------------------------------------------------------




 Dimension of arrays:
   k-points           NKPTS =      6   k-points in BZ     NKDIM =      6   number of bands    NBANDS=    512
   number of dos      NEDOS =    301   number of ions     NIONS =     64
   non local maximal  LDIM  =      6   non local SUM 2l+1 LMDIM =     18
   total plane-waves  NPLWV = 829440
   max r-space proj   IRMAX =      1   max aug-charges    IRDMAX=  22940
   dimension x,y,z NGX =    96 NGY =   96 NGZ =   90
   dimension x,y,z NGXF=   192 NGYF=  192 NGZF=  180
   support grid    NGXF=   192 NGYF=  192 NGZF=  180
   ions per type =              32  16  16
   NGX,Y,Z   is equivalent  to a cutoff of  15.19, 15.19, 14.35 a.u.
   NGXF,Y,Z  is equivalent  to a cutoff of  30.38, 30.38, 28.70 a.u.

 SYSTEM =  CuFeS2                                  
 POSCAR =  Fe16 Cu16 S32                           

 Startparameter for this run:
   NWRITE =      2    write-flag & timer
   PREC   = accura    normal or accurate (medium, high low for compatibility)
   ISTART =      0    job   : 0-new  1-cont  2-samecut
   ICHARG =      1    charge: 1-file 2-atom 10-const
   ISPIN  =      2    spin polarized calculation?
   LNONCOLLINEAR =      F non collinear calculations
   LSORBIT =      F    spin-orbit coupling
   INIWAV =      1    electr: 0-lowe 1-rand  2-diag
   LASPH  =      F    aspherical Exc in radial PAW
   METAGGA=      F    non-selfconsistent MetaGGA calc.

 Electronic Relaxation 1
   ENCUT  =  700.0 eV  51.45 Ry    7.17 a.u.  22.67 22.67 22.49*2*pi/ulx,y,z
   ENINI  =  700.0     initial cutoff
   ENAUG  =  758.2 eV  augmentation charge cutoff
   NELM   =    500;   NELMIN=  2; NELMDL=  0     # of ELM steps 
   EDIFF  = 0.1E-07   stopping-criterion for ELM
   LREAL  =      F    real-space projection
   NLSPLINE    = F    spline interpolate recip. space projectors
   LCOMPAT=      F    compatible to vasp.4.4
   GGA_COMPAT  = T    GGA compatible to vasp.4.4-vasp.4.6
   LMAXPAW     = -100 max onsite density
   LMAXMIX     =    4 max onsite mixed and CHGCAR
   VOSKOWN=      0    Vosko Wilk Nusair interpolation
   ROPT   =    0.00000   0.00000   0.00000
 Ionic relaxation
   EDIFFG = -.1E-04   stopping-criterion for IOM
   NSW    =      0    number of steps for IOM
   NBLOCK =      1;   KBLOCK =      1    inner block; outer block 
   IBRION =     -1    ionic relax: 0-MD 1-quasi-New 2-CG
   NFREE  =      0    steps in history (QN), initial steepest desc. (CG)
   ISIF   =      2    stress and relaxation
   IWAVPR =     10    prediction:  0-non 1-charg 2-wave 3-comb
   ISYM   =      2    0-nonsym 1-usesym 2-fastsym
   LCORR  =      T    Harris-Foulkes like correction to forces

   POTIM  = 0.5000    time-step for ionic-motion
   TEIN   =    0.0    initial temperature
   TEBEG  =    0.0;   TEEND  =   0.0 temperature during run
   SMASS  =  -3.00    Nose mass-parameter (am)
   estimated Nose-frequenzy (Omega)   =  0.10E-29 period in steps =****** mass=  -0.252E-26a.u.
   SCALEE = 1.0000    scale energy and forces
   NPACO  =    256;   APACO  = 16.0  distance and # of slots for P.C.
   PSTRESS=    0.0 pullay stress

  Mass of Ions in am
   POMASS =  32.07 63.55 55.85
  Ionic Valenz
   ZVAL   =   6.00 17.00 14.00
  Atomic Wigner-Seitz radii
   RWIGS  =  -1.00 -1.00 -1.00
  virtual crystal weights 
   VCA    =   1.00  1.00  1.00
   NELECT =     688.0000    total number of electrons
   NUPDOWN=      -1.0000    fix difference up-down

 DOS related values:
   EMIN   =  10.00;   EMAX   =-10.00  energy-range for DOS
   EFERMI =   0.00
   ISMEAR =    -5;   SIGMA  =   0.03  broadening in eV -4-tet -1-fermi 0-gaus

 Electronic relaxation 2 (details)
   IALGO  =     38    algorithm
   LDIAG  =      T    sub-space diagonalisation (order eigenvalues)
   LSUBROT=      F    optimize rotation matrix (better conditioning)
   TURBO    =      0    0=normal 1=particle mesh
   IRESTART =      0    0=no restart 2=restart with 2 vectors
   NREBOOT  =      0    no. of reboots
   NMIN     =      0    reboot dimension
   EREF     =   0.00    reference energy to select bands
   IMIX   =      4    mixing-type and parameters
     AMIX     =   0.40;   BMIX     =  1.00
     AMIX_MAG =   1.60;   BMIX_MAG =  1.00
     AMIN     =   0.10
     WC   =   100.;   INIMIX=   1;  MIXPRE=   1;  MAXMIX= -45

 Intra band minimization:
   WEIMIN = 0.0000     energy-eigenvalue tresh-hold
   EBREAK =  0.49E-11  absolut break condition
   DEPER  =   0.30     relativ break condition  

   TIME   =   0.40     timestep for ELM

  volume/ion in A,a.u.               =      17.95       121.15
  Fermi-wavevector in a.u.,A,eV,Ry     =   1.379861  2.607559 25.905712  1.904016
  Thomas-Fermi vector in A             =   2.504791
 
 Write flags
   LWAVE        =      T    write WAVECAR
   LDOWNSAMPLE  =      F    k-point downsampling of WAVECAR
   LCHARG       =      T    write CHGCAR
   LVTOT        =      F    write LOCPOT, total local potential
   LVHAR        =      F    write LOCPOT, Hartree potential only
   LELF         =      F    write electronic localiz. function (ELF)
   LORBIT       =     11    0 simple, 1 ext, 2 COOP (PROOUT), +10 PAW based schemes


 Dipole corrections
   LMONO  =      F    monopole corrections only (constant potential shift)
   LDIPOL =      F    correct potential (dipole corrections)
   IDIPOL =      0    1-x, 2-y, 3-z, 4-all directions 
   EPSILON=  1.0000000 bulk dielectric constant

 LDA+U is selected, type is set to LDAUTYPE =  2
   angular momentum for each species LDAUL =     2    2    2
   U (eV)           for each species LDAUU =   0.0  0.1  4.7
   J (eV)           for each species LDAUJ =   0.0  0.0  0.0
 Exchange correlation treatment:
   GGA     =    PS    GGA type
   LEXCH   =    14    internal setting for exchange type
   VOSKOWN=      0    Vosko Wilk Nusair interpolation
   LHFCALC =     F    Hartree Fock is set to
   LHFONE  =     F    Hartree Fock one center treatment
   AEXX    =    0.0000 exact exchange contribution

 Linear response parameters
   LEPSILON=     F    determine dielectric tensor
   LRPA    =     F    only Hartree local field effects (RPA)
   LNABLA  =     F    use nabla operator in PAW spheres
   LVEL    =     F    velocity operator in full k-point grid
   LINTERFAST=   F  fast interpolation
   KINTER  =     0    interpolate to denser k-point grid
   CSHIFT  =0.1000    complex shift for real part using Kramers Kronig
   OMEGAMAX=  -1.0    maximum frequency
   DEG_THRESHOLD= 0.2000000E-02 threshold for treating states as degnerate
   RTIME   =   -0.100 relaxation time in fs
  (WPLASMAI=    0.000 imaginary part of plasma frequency in eV, 0.658/RTIME)
   DFIELD  = 0.0000000 0.0000000 0.0000000 field for delta impulse in time
 
 Orbital magnetization related:
   ORBITALMAG=     F  switch on orbital magnetization
   LCHIMAG   =     F  perturbation theory with respect to B field
   DQ        =  0.001000  dq finite difference perturbation B field
   LLRAUG    =     F  two centre corrections for induced B field

 PEAD related settings:
   LPEAD      =     T    switch on PEAD
   IPEAD      =     4    finite difference order for dpsi/dk
   LCALCPOL   =     T    calculate macroscopic polarization
   LCALCEPS   =     F    calculate dielectric tensor
   EFIELD_PEAD=    0.0000    0.0000    0.0000
   SKIP_EDOTP =     F
   LRPA       =     F
   SKIP_SCF   =     F


--------------------------------------------------------------------------------------------------------


 Static calculation
 charge density and potential will be updated during run
 spin polarized calculation
 Variant of blocked Davidson
 Davidson routine will perform the subspace rotation
 perform sub-space diagonalisation
    after iterative eigenvector-optimisation
 modified Broyden-mixing scheme, WC =      100.0
 initial mixing is a Kerker type mixing with AMIX =  0.4000 and BMIX =      1.0000
 Hartree-type preconditioning will be used
 using additional bands          168
 reciprocal scheme for non local part
 use partial core corrections
 calculate Harris-corrections to forces 
   (improved forces if not selfconsistent)
 use gradient corrections 
 use of overlap-Matrix (Vanderbilt PP)
 Fermi weights with tetrahedron method with Bloechl corrections


--------------------------------------------------------------------------------------------------------


  energy-cutoff  :      700.00
  volume of cell :     1148.97
      direct lattice vectors                 reciprocal lattice vectors
    10.501929000  0.320783000  0.000000000     0.095309526 -0.002911244  0.000000000
     0.320783000 10.501929000  0.000000000    -0.002911244  0.095309526  0.000000000
     0.000000000  0.000000000 10.427357000     0.000000000  0.000000000  0.095901579

  length of vectors
    10.506827040 10.506827040 10.427357000     0.095353978  0.095353978  0.095901579


 
 k-points in units of 2pi/SCALE and weight: Automatic mesh                          
   0.00000000  0.00000000  0.00000000       0.125
   0.04765476 -0.00145562  0.00000000       0.250
   0.04619914  0.04619914  0.00000000       0.125
   0.00000000  0.00000000  0.04795079       0.125
   0.04765476 -0.00145562  0.04795079       0.250
   0.04619914  0.04619914  0.04795079       0.125
 
 k-points in reciprocal lattice and weights: Automatic mesh                          
   0.00000000  0.00000000  0.00000000       0.125
   0.50000000  0.00000000  0.00000000       0.250
   0.50000000  0.50000000  0.00000000       0.125
   0.00000000  0.00000000  0.50000000       0.125
   0.50000000  0.00000000  0.50000000       0.250
   0.50000000  0.50000000  0.50000000       0.125
 
 position of ions in fractional coordinates (direct lattice) 
   0.12611900  0.12535500  0.12161600
   0.62611900  0.12535500  0.12161600
   0.12611900  0.62535500  0.12161600
   0.62611900  0.62535500  0.12161600
   0.37388100  0.37464500  0.12161600
   0.87388100  0.37464500  0.12161600
   0.37388100  0.87464500  0.12161600
   0.87388100  0.87464500  0.12161600
   0.12464500  0.37388100  0.87161600
   0.62464500  0.37388100  0.87161600
   0.12464500  0.87388100  0.87161600
   0.62464500  0.87388100  0.87161600
   0.37535500  0.12611900  0.87161600
   0.87535500  0.12611900  0.87161600
   0.37535500  0.62611900  0.87161600
   0.87535500  0.62611900  0.87161600
   0.12388100  0.12464500  0.62161600
   0.62388100  0.12464500  0.62161600
   0.12388100  0.62464500  0.62161600
   0.62388100  0.62464500  0.62161600
   0.37611900  0.37535500  0.62161600
   0.87611900  0.37535500  0.62161600
   0.37611900  0.87535500  0.62161600
   0.87611900  0.87535500  0.62161600
   0.37464500  0.12388100  0.37161600
   0.87464500  0.12388100  0.37161600
   0.37464500  0.62388100  0.37161600
   0.87464500  0.62388100  0.37161600
   0.12535500  0.37611900  0.37161600
   0.62535500  0.37611900  0.37161600
   0.12535500  0.87611900  0.37161600
   0.62535500  0.87611900  0.37161600
   0.00000000  0.00000000  0.50293600
   0.50000000  0.00000000  0.50293600
   0.00000000  0.50000000  0.50293600
   0.50000000  0.50000000  0.50293600
   0.25000000  0.00000000  0.25293600
   0.75000000  0.00000000  0.25293600
   0.25000000  0.50000000  0.25293600
   0.75000000  0.50000000  0.25293600
   0.25000000  0.25000000  0.00293600
   0.75000000  0.25000000  0.00293600
   0.25000000  0.75000000  0.00293600
   0.75000000  0.75000000  0.00293600
   0.00000000  0.25000000  0.75293600
   0.50000000  0.25000000  0.75293600
   0.00000000  0.75000000  0.75293600
   0.50000000  0.75000000  0.75293600
   0.00000000  0.00000000  0.00383300
   0.50000000  0.00000000  0.00383300
   0.00000000  0.50000000  0.00383300
   0.50000000  0.50000000  0.00383300
   0.25000000  0.00000000  0.75383300
   0.75000000  0.00000000  0.75383300
   0.25000000  0.50000000  0.75383300
   0.75000000  0.50000000  0.75383300
   0.25000000  0.25000000  0.50383300
   0.75000000  0.25000000  0.50383300
   0.25000000  0.75000000  0.50383300
   0.75000000  0.75000000  0.50383300
   0.00000000  0.25000000  0.25383300
   0.50000000  0.25000000  0.25383300
   0.00000000  0.75000000  0.25383300
   0.50000000  0.75000000  0.25383300
 
 position of ions in cartesian coordinates  (Angst):
   1.36470454  1.35692614  1.26813345
   6.61566904  1.51731764  1.26813345
   1.52509604  6.60789064  1.26813345
   6.77606054  6.76828214  1.26813345
   4.04665146  4.05442986  1.26813345
   9.29761596  4.21482136  1.26813345
   4.20704296  9.30539436  1.26813345
   9.45800746  9.46578586  1.26813345
   1.42894761  3.96645571  9.08865120
   6.67991211  4.12684721  9.08865120
   1.58933911  9.21742021  9.08865120
   6.84030361  9.37781171  9.08865120
   3.98240839  1.44490029  9.08865120
   9.23337289  1.60529179  9.08865120
   4.14279989  6.69586479  9.08865120
   9.39376439  6.85625629  9.08865120
   1.34097346  1.34875186  6.48181195
   6.59193796  1.50914336  6.48181195
   1.50136496  6.59971636  6.48181195
   6.75232946  6.76010786  6.48181195
   4.07038254  4.06260414  6.48181195
   9.32134704  4.22299564  6.48181195
   4.23077404  9.31356864  6.48181195
   9.48173854  9.47396014  6.48181195
   3.97423411  1.42116921  3.87497270
   9.22519861  1.58156071  3.87497270
   4.13462561  6.67213371  3.87497270
   9.38559011  6.83252521  3.87497270
   1.43712189  3.99018679  3.87497270
   6.68808639  4.15057829  3.87497270
   1.59751339  9.24115129  3.87497270
   6.84847789  9.40154279  3.87497270
   0.00000000  0.00000000  5.24429322
   5.25096450  0.16039150  5.24429322
   0.16039150  5.25096450  5.24429322
   5.41135600  5.41135600  5.24429322
   2.62548225  0.08019575  2.63745397
   7.87644675  0.24058725  2.63745397
   2.78587375  5.33116025  2.63745397
   8.03683825  5.49155175  2.63745397
   2.70567800  2.70567800  0.03061472
   7.95664250  2.86606950  0.03061472
   2.86606950  7.95664250  0.03061472
   8.11703400  8.11703400  0.03061472
   0.08019575  2.62548225  7.85113247
   5.33116025  2.78587375  7.85113247
   0.24058725  7.87644675  7.85113247
   5.49155175  8.03683825  7.85113247
   0.00000000  0.00000000  0.03996806
   5.25096450  0.16039150  0.03996806
   0.16039150  5.25096450  0.03996806
   5.41135600  5.41135600  0.03996806
   2.62548225  0.08019575  7.86048581
   7.87644675  0.24058725  7.86048581
   2.78587375  5.33116025  7.86048581
   8.03683825  5.49155175  7.86048581
   2.70567800  2.70567800  5.25364656
   7.95664250  2.86606950  5.25364656
   2.86606950  7.95664250  5.25364656
   8.11703400  8.11703400  5.25364656
   0.08019575  2.62548225  2.64680731
   5.33116025  2.78587375  2.64680731
   0.24058725  7.87644675  2.64680731
   5.49155175  8.03683825  2.64680731
 


--------------------------------------------------------------------------------------------------------


 k-point  1 :   0.0000 0.0000 0.0000  plane waves:   48359
 k-point  2 :   0.5000 0.0000 0.0000  plane waves:   48348
 k-point  3 :   0.5000 0.5000 0.0000  plane waves:   48334
 k-point  4 :   0.0000 0.0000 0.5000  plane waves:   48300
 k-point  5 :   0.5000 0.0000 0.5000  plane waves:   48280
 k-point  6 :   0.5000 0.5000 0.5000  plane waves:   48236

 maximum and minimum number of plane-waves per node :     48359    48236

 maximum number of plane-waves:     48359
 maximum index in each direction: 
   IXMAX=   22   IYMAX=   22   IZMAX=   22
   IXMIN=  -23   IYMIN=  -23   IZMIN=  -22


 serial   3D FFT for wavefunctions
 parallel 3D FFT for charge:
    minimum data exchange during FFTs selected (reduces bandwidth)


 total amount of memory used by VASP MPI-rank0   300225. kBytes
=======================================================================

   base      :      30000. kBytes
   nonl-proj :     174956. kBytes
   fftplans  :       4588. kBytes
   grid      :      69719. kBytes
   one-center:       1990. kBytes
   wavefun   :      18972. kBytes
 
     INWAV:  cpu time    0.0000: real time    0.0000
 Broyden mixing: mesh for mixing (old mesh)
   NGX = 45   NGY = 45   NGZ = 45
  (NGX  =192   NGY  =192   NGZ  =180)
  gives a total of  91125 points

 initial charge density was supplied:
 number of electron     688.0000276 magnetization      -0.0000000
 keeping initial charge density in first step


--------------------------------------------------------------------------------------------------------


 Maximum index for augmentation-charges          899 (set IRDMAX)


--------------------------------------------------------------------------------------------------------


 First call to EWALD:  gamma=   0.169
 Maximum number of real-space cells 3x 3x 3
 Maximum number of reciprocal cells 3x 3x 3

    FEWALD:  cpu time    0.0022: real time    0.0022


--------------------------------------- Iteration      1(   1)  ---------------------------------------


    POTLOK:  cpu time    0.3281: real time    0.3748
    SETDIJ:  cpu time    0.0143: real time    0.0144
     EDDAV:  cpu time   62.6873: real time   63.2430
 BZINTS: Fermi energy: 15.026794;688.000000 electrons
         Band energy:***********;  BLOECHL correction: -0.013077
       DOS:  cpu time    0.0202: real time    0.0202
    --------------------------------------------
      LOOP:  cpu time   63.0499: real time   63.6525

 eigenvalue-minimisations  : 12288
 total energy-change (2. order) : 0.6058413E+04  (-0.5155978E+05)
 number of electron     688.0000276 magnetization      -0.0000000
 augmentation part      688.0000276 magnetization      -0.0000000

 Free energy of the ion-electron system (eV)
  ---------------------------------------------------
  alpha Z        PSCENC =      2359.64475086
  Ewald energy   TEWEN  =    -62516.13314418
  -Hartree energ DENC   =    -42922.06240629
  -exchange      EXHF   =         0.00000000
  -V(xc)+E(xc)   XCENC  =      3286.51877788
  PAW double counting   =    112256.84180891  -115950.38106098
  entropy T*S    EENTRO =         0.00000000
  eigenvalues    EBANDS =     -4476.08061772
  atomic energy  EATOM  =    114020.06510763
  Solvation  Ediel_sol  =         0.00000000
  ---------------------------------------------------
  free energy    TOTEN  =      6058.41321609 eV

  energy without entropy =     6058.41321609  energy(sigma->0) =     6058.41321609


--------------------------------------------------------------------------------------------------------




--------------------------------------- Iteration      1(   2)  ---------------------------------------


     EDDAV:  cpu time   72.0056: real time   72.5571
 BZINTS: Fermi energy:  5.592250;688.000000 electrons
         Band energy:***********;  BLOECHL correction:  0.000000
       DOS:  cpu time    0.0028: real time    0.0029
    --------------------------------------------
      LOOP:  cpu time   72.0084: real time   72.5599

 eigenvalue-minimisations  : 13312
 total energy-change (2. order) :-0.6131528E+04  (-0.6021829E+04)
 number of electron     688.0000276 magnetization      -0.0000000
 augmentation part      688.0000276 magnetization      -0.0000000

 Free energy of the ion-electron system (eV)
  ---------------------------------------------------
  alpha Z        PSCENC =      2359.64475086
  Ewald energy   TEWEN  =    -62516.13314418
  -Hartree energ DENC   =    -42922.06240629
  -exchange      EXHF   =         0.00000000
  -V(xc)+E(xc)   XCENC  =      3286.51877788
  PAW double counting   =    112256.84180891  -115950.38106098
  entropy T*S    EENTRO =         0.00000000
  eigenvalues    EBANDS =    -10607.60908732
  atomic energy  EATOM  =    114020.06510763
  Solvation  Ediel_sol  =         0.00000000
  ---------------------------------------------------
  free energy    TOTEN  =       -73.11525350 eV

  energy without entropy =      -73.11525350  energy(sigma->0) =      -73.11525350


--------------------------------------------------------------------------------------------------------




--------------------------------------- Iteration      1(   3)  ---------------------------------------


     EDDAV:  cpu time  115.9741: real time  116.7818
 BZINTS: Fermi energy:  5.090283;688.000000 electrons
         Band energy:***********;  BLOECHL correction:  0.000000
       DOS:  cpu time    0.0032: real time    0.0033
    --------------------------------------------
      LOOP:  cpu time  115.9774: real time  116.7851

 eigenvalue-minimisations  : 16896
 total energy-change (2. order) :-0.2509995E+03  (-0.2500240E+03)
 number of electron     688.0000276 magnetization      -0.0000000
 augmentation part      688.0000276 magnetization      -0.0000000

 Free energy of the ion-electron system (eV)
  ---------------------------------------------------
  alpha Z        PSCENC =      2359.64475086
  Ewald energy   TEWEN  =    -62516.13314418
  -Hartree energ DENC   =    -42922.06240629
  -exchange      EXHF   =         0.00000000
  -V(xc)+E(xc)   XCENC  =      3286.51877788
  PAW double counting   =    112256.84180891  -115950.38106098
  entropy T*S    EENTRO =         0.00000000
  eigenvalues    EBANDS =    -10858.60861351
  atomic energy  EATOM  =    114020.06510763
  Solvation  Ediel_sol  =         0.00000000
  ---------------------------------------------------
  free energy    TOTEN  =      -324.11477969 eV

  energy without entropy =     -324.11477969  energy(sigma->0) =     -324.11477969


--------------------------------------------------------------------------------------------------------




--------------------------------------- Iteration      1(   4)  ---------------------------------------


     EDDAV:  cpu time   79.9130: real time   80.5095
 BZINTS: Fermi energy:  4.957323;688.000000 electrons
         Band energy:***********;  BLOECHL correction:  0.000000
       DOS:  cpu time    0.0032: real time    0.0032
    --------------------------------------------
      LOOP:  cpu time   79.9162: real time   80.5127

 eigenvalue-minimisations  : 13824
 total energy-change (2. order) :-0.3502199E+01  (-0.3502004E+01)
 number of electron     688.0000276 magnetization      -0.0000000
 augmentation part      688.0000276 magnetization      -0.0000000

 Free energy of the ion-electron system (eV)
  ---------------------------------------------------
  alpha Z        PSCENC =      2359.64475086
  Ewald energy   TEWEN  =    -62516.13314418
  -Hartree energ DENC   =    -42922.06240629
  -exchange      EXHF   =         0.00000000
  -V(xc)+E(xc)   XCENC  =      3286.51877788
  PAW double counting   =    112256.84180891  -115950.38106098
  entropy T*S    EENTRO =         0.00000000
  eigenvalues    EBANDS =    -10862.11081243
  atomic energy  EATOM  =    114020.06510763
  Solvation  Ediel_sol  =         0.00000000
  ---------------------------------------------------
  free energy    TOTEN  =      -327.61697861 eV

  energy without entropy =     -327.61697861  energy(sigma->0) =     -327.61697861


--------------------------------------------------------------------------------------------------------




--------------------------------------- Iteration      1(   5)  ---------------------------------------


     EDDAV:  cpu time  125.7892: real time  126.6477
 BZINTS: Fermi energy:  4.930675;688.000000 electrons
         Band energy:***********;  BLOECHL correction:  0.000000
       DOS:  cpu time    0.0033: real time    0.0042
    CHARGE:  cpu time    1.1686: real time    1.1950
    MIXING:  cpu time    0.0023: real time    0.0023
    --------------------------------------------
      LOOP:  cpu time  126.9634: real time  127.8492

 eigenvalue-minimisations  : 17408
 total energy-change (2. order) :-0.1028092E+00  (-0.1028087E+00)
 number of electron     688.0000276 magnetization      -0.0000000
 augmentation part      282.2412821 magnetization      -0.0000000

 Broyden mixing:
  rms(total) = 0.25354E-01    rms(broyden)= 0.25350E-01
  rms(prec ) = 0.25416E-01
  weight for this iteration     100.00

 Free energy of the ion-electron system (eV)
  ---------------------------------------------------
  alpha Z        PSCENC =      2359.64475086
  Ewald energy   TEWEN  =    -62516.13314418
  -Hartree energ DENC   =    -42922.06240629
  -exchange      EXHF   =         0.00000000
  -V(xc)+E(xc)   XCENC  =      3286.51877788
  PAW double counting   =    112256.84180891  -115950.38106098
  entropy T*S    EENTRO =         0.00000000
  eigenvalues    EBANDS =    -10862.21362166
  atomic energy  EATOM  =    114020.06510763
  Solvation  Ediel_sol  =         0.00000000
  ---------------------------------------------------
  free energy    TOTEN  =      -327.71978785 eV

  energy without entropy =     -327.71978785  energy(sigma->0) =     -327.71978785


--------------------------------------------------------------------------------------------------------




--------------------------------------- Iteration      1(   6)  ---------------------------------------


    POTLOK:  cpu time    0.1231: real time    0.1239
    SETDIJ:  cpu time    0.0127: real time    0.0128
     EDDAV:  cpu time  103.1563: real time  103.8899
 BZINTS: Fermi energy:  4.926957;688.000000 electrons
         Band energy:***********;  BLOECHL correction:  0.000000
       DOS:  cpu time    0.0031: real time    0.0032
    CHARGE:  cpu time    1.4663: real time    1.4749
    MIXING:  cpu time    0.0028: real time    0.1512
    --------------------------------------------
      LOOP:  cpu time  104.7642: real time  105.6559

 eigenvalue-minimisations  : 15872
 total energy-change (2. order) :-0.5058638E-02  (-0.5077181E-02)
 number of electron     688.0000276 magnetization      -0.0000000
 augmentation part      282.2150675 magnetization      -0.0000000

 Broyden mixing:
  rms(total) = 0.98545E-02    rms(broyden)= 0.98516E-02
  rms(prec ) = 0.10268E-01
  weight for this iteration     100.00

 eigenvalues of (default mixing * dielectric matrix)
  average eigenvalue GAMMA=   0.7217
  0.7217

 Free energy of the ion-electron system (eV)
  ---------------------------------------------------
  alpha Z        PSCENC =      2359.64475086
  Ewald energy   TEWEN  =    -62516.13314418
  -Hartree energ DENC   =    -42922.62266896
  -exchange      EXHF   =         0.00000000
  -V(xc)+E(xc)   XCENC  =      3286.54364968
  PAW double counting   =    112277.91290894  -115971.64241408
  entropy T*S    EENTRO =         0.00000000
  eigenvalues    EBANDS =    -10861.49303637
  atomic energy  EATOM  =    114020.06510763
  Solvation  Ediel_sol  =         0.00000000
  ---------------------------------------------------
  free energy    TOTEN  =      -327.72484648 eV

  energy without entropy =     -327.72484648  energy(sigma->0) =     -327.72484648


--------------------------------------------------------------------------------------------------------




--------------------------------------- Iteration      1(   7)  ---------------------------------------


    POTLOK:  cpu time    0.1353: real time    0.1361
    SETDIJ:  cpu time    0.0164: real time    0.0164
     EDDAV:  cpu time  118.8823: real time  119.6928
 BZINTS: Fermi energy:  4.925313;688.000000 electrons
         Band energy:***********;  BLOECHL correction:  0.000000
       DOS:  cpu time    0.0032: real time    0.0032
    CHARGE:  cpu time    1.1933: real time    1.2008
    MIXING:  cpu time    0.0019: real time    0.0144
    --------------------------------------------
      LOOP:  cpu time  120.2324: real time  121.0638

 eigenvalue-minimisations  : 16640
 total energy-change (2. order) :-0.2765684E-03  (-0.3223461E-03)
 number of electron     688.0000276 magnetization      -0.0000000
 augmentation part      282.2287887 magnetization      -0.0000000

 Broyden mixing:
  rms(total) = 0.88079E-02    rms(broyden)= 0.88070E-02
  rms(prec ) = 0.92404E-02
  weight for this iteration     100.00

 eigenvalues of (default mixing * dielectric matrix)
  average eigenvalue GAMMA=   0.5350
  0.5350  0.5350

 Free energy of the ion-electron system (eV)
  ---------------------------------------------------
  alpha Z        PSCENC =      2359.64475086
  Ewald energy   TEWEN  =    -62516.13314418
  -Hartree energ DENC   =    -42921.69027241
  -exchange      EXHF   =         0.00000000
  -V(xc)+E(xc)   XCENC  =      3286.51322927
  PAW double counting   =    112270.60555099  -115964.16968581
  entropy T*S    EENTRO =         0.00000000
  eigenvalues    EBANDS =    -10862.56065939
  atomic energy  EATOM  =    114020.06510763
  Solvation  Ediel_sol  =         0.00000000
  ---------------------------------------------------
  free energy    TOTEN  =      -327.72512305 eV

  energy without entropy =     -327.72512305  energy(sigma->0) =     -327.72512305


--------------------------------------------------------------------------------------------------------




--------------------------------------- Iteration      1(   8)  ---------------------------------------


    POTLOK:  cpu time    0.1225: real time    0.1262
    SETDIJ:  cpu time    0.0128: real time    0.0129
     EDDAV:  cpu time  101.8336: real time  102.5580
 BZINTS: Fermi energy:  4.925470;688.000000 electrons
         Band energy:***********;  BLOECHL correction:  0.000000
       DOS:  cpu time    0.0032: real time    0.0032
    CHARGE:  cpu time    1.1684: real time    1.1753
    MIXING:  cpu time    0.0015: real time    0.0165
    --------------------------------------------
      LOOP:  cpu time  103.1420: real time  103.8920

 eigenvalue-minimisations  : 15616
 total energy-change (2. order) :-0.1106587E-04  (-0.3516418E-04)
 number of electron     688.0000276 magnetization      -0.0000000
 augmentation part      282.2265363 magnetization      -0.0000000

 Broyden mixing:
  rms(total) = 0.75663E-02    rms(broyden)= 0.75660E-02
  rms(prec ) = 0.76347E-02
  weight for this iteration     100.00

 eigenvalues of (default mixing * dielectric matrix)
  average eigenvalue GAMMA=   0.4276
  0.5127  0.5127  0.2574

 Free energy of the ion-electron system (eV)
  ---------------------------------------------------
  alpha Z        PSCENC =      2359.64475086
  Ewald energy   TEWEN  =    -62516.13314418
  -Hartree energ DENC   =    -42921.99861245
  -exchange      EXHF   =         0.00000000
  -V(xc)+E(xc)   XCENC  =      3286.52440969
  PAW double counting   =    112269.23399736  -115962.82823743
  entropy T*S    EENTRO =         0.00000000
  eigenvalues    EBANDS =    -10862.23340558
  atomic energy  EATOM  =    114020.06510763
  Solvation  Ediel_sol  =         0.00000000
  ---------------------------------------------------
  free energy    TOTEN  =      -327.72513412 eV

  energy without entropy =     -327.72513412  energy(sigma->0) =     -327.72513412


--------------------------------------------------------------------------------------------------------




--------------------------------------- Iteration      1(   9)  ---------------------------------------


    POTLOK:  cpu time    0.1229: real time    0.1238
    SETDIJ:  cpu time    0.0128: real time    0.0128
     EDDAV:  cpu time  116.4964: real time  117.2964
 BZINTS: Fermi energy:  4.925345;688.000000 electrons
         Band energy:***********;  BLOECHL correction:  0.000000
       DOS:  cpu time    0.0031: real time    0.0031
    CHARGE:  cpu time    1.1687: real time    1.1763
    MIXING:  cpu time    0.0014: real time    0.0014
    --------------------------------------------
      LOOP:  cpu time  117.8054: real time  118.6140

 eigenvalue-minimisations  : 16384
 total energy-change (2. order) :-0.3039895E-06  (-0.1884213E-05)
 number of electron     688.0000276 magnetization      -0.0000000
 augmentation part      282.2254702 magnetization      -0.0000000

 Broyden mixing:
  rms(total) = 0.67301E-02    rms(broyden)= 0.67301E-02
  rms(prec ) = 0.67482E-02
  weight for this iteration     100.00

 eigenvalues of (default mixing * dielectric matrix)
  average eigenvalue GAMMA=   0.5017
  0.6568  0.6568  0.3465  0.3465

 Free energy of the ion-electron system (eV)
  ---------------------------------------------------
  alpha Z        PSCENC =      2359.64475086
  Ewald energy   TEWEN  =    -62516.13314418
  -Hartree energ DENC   =    -42922.04196558
  -exchange      EXHF   =         0.00000000
  -V(xc)+E(xc)   XCENC  =      3286.52382547
  PAW double counting   =    112268.22861135  -115961.82683948
  entropy T*S    EENTRO =         0.00000000
  eigenvalues    EBANDS =    -10862.18548049
  atomic energy  EATOM  =    114020.06510763
  Solvation  Ediel_sol  =         0.00000000
  ---------------------------------------------------
  free energy    TOTEN  =      -327.72513442 eV

  energy without entropy =     -327.72513442  energy(sigma->0) =     -327.72513442


--------------------------------------------------------------------------------------------------------




--------------------------------------- Iteration      1(  10)  ---------------------------------------


    POTLOK:  cpu time    0.1205: real time    0.1216
    SETDIJ:  cpu time    0.0127: real time    0.0128
     EDDAV:  cpu time  127.3764: real time  128.2458
 BZINTS: Fermi energy:  4.925263;688.000000 electrons
         Band energy:***********;  BLOECHL correction:  0.000000
       DOS:  cpu time    0.0031: real time    0.0032
    CHARGE:  cpu time    1.1677: real time    1.1759
    MIXING:  cpu time    0.0013: real time    0.0013
    --------------------------------------------
      LOOP:  cpu time  128.6818: real time  129.5607

 eigenvalue-minimisations  : 17664
 total energy-change (2. order) : 0.1837470E-06  (-0.1402383E-06)
 number of electron     688.0000276 magnetization      -0.0000000
 augmentation part      282.2251716 magnetization      -0.0000000

 Broyden mixing:
  rms(total) = 0.57234E-02    rms(broyden)= 0.57234E-02
  rms(prec ) = 0.57388E-02
  weight for this iteration     100.00

 eigenvalues of (default mixing * dielectric matrix)
  average eigenvalue GAMMA=   0.7849
  1.3041  1.3041  0.4857  0.4857  0.3447

 Free energy of the ion-electron system (eV)
  ---------------------------------------------------
  alpha Z        PSCENC =      2359.64475086
  Ewald energy   TEWEN  =    -62516.13314418
  -Hartree energ DENC   =    -42922.07272805
  -exchange      EXHF   =         0.00000000
  -V(xc)+E(xc)   XCENC  =      3286.52363158
  PAW double counting   =    112266.45324563  -115960.04451813
  entropy T*S    EENTRO =         0.00000000
  eigenvalues    EBANDS =    -10862.16147956
  atomic energy  EATOM  =    114020.06510763
  Solvation  Ediel_sol  =         0.00000000
  ---------------------------------------------------
  free energy    TOTEN  =      -327.72513424 eV

  energy without entropy =     -327.72513424  energy(sigma->0) =     -327.72513424


--------------------------------------------------------------------------------------------------------




--------------------------------------- Iteration      1(  11)  ---------------------------------------


    POTLOK:  cpu time    0.1221: real time    0.1230
    SETDIJ:  cpu time    0.0128: real time    0.0129
     EDDAV:  cpu time  107.7527: real time  108.5021
 BZINTS: Fermi energy:  4.925175;688.000000 electrons
         Band energy:***********;  BLOECHL correction:  0.000000
       DOS:  cpu time    0.0031: real time    0.0032
    CHARGE:  cpu time    1.1704: real time    1.1774
    MIXING:  cpu time    0.0015: real time    0.0015
    --------------------------------------------
      LOOP:  cpu time  109.0627: real time  109.8201

 eigenvalue-minimisations  : 15616
 total energy-change (2. order) : 0.8107017E-06  (-0.1844344E-06)
 number of electron     688.0000276 magnetization      -0.0000000
 augmentation part      282.2260224 magnetization      -0.0000000

 Broyden mixing:
  rms(total) = 0.23205E-02    rms(broyden)= 0.23205E-02
  rms(prec ) = 0.23309E-02
  weight for this iteration     100.00

 eigenvalues of (default mixing * dielectric matrix)
  average eigenvalue GAMMA=   0.9113
  1.8426  1.3461  0.7423  0.6001  0.6001  0.3365

 Free energy of the ion-electron system (eV)
  ---------------------------------------------------
  alpha Z        PSCENC =      2359.64475086
  Ewald energy   TEWEN  =    -62516.13314418
  -Hartree energ DENC   =    -42922.09031319
  -exchange      EXHF   =         0.00000000
  -V(xc)+E(xc)   XCENC  =      3286.52200118
  PAW double counting   =    112260.58785568  -115954.14297884
  entropy T*S    EENTRO =         0.00000000
  eigenvalues    EBANDS =    -10862.17841255
  atomic energy  EATOM  =    114020.06510763
  Solvation  Ediel_sol  =         0.00000000
  ---------------------------------------------------
  free energy    TOTEN  =      -327.72513343 eV

  energy without entropy =     -327.72513343  energy(sigma->0) =     -327.72513343


--------------------------------------------------------------------------------------------------------




--------------------------------------- Iteration      1(  12)  ---------------------------------------


    POTLOK:  cpu time    0.1203: real time    0.1231
    SETDIJ:  cpu time    0.0127: real time    0.0128
     EDDAV:  cpu time  124.2512: real time  125.1113
 BZINTS: Fermi energy:  4.925068;688.000000 electrons
         Band energy:***********;  BLOECHL correction:  0.000000
       DOS:  cpu time    0.0032: real time    0.0032
    CHARGE:  cpu time    1.1755: real time    1.1839
    MIXING:  cpu time    0.0017: real time    0.0017
    --------------------------------------------
      LOOP:  cpu time  125.5645: real time  126.4360

 eigenvalue-minimisations  : 17920
 total energy-change (2. order) : 0.3895839E-06  (-0.1414544E-06)
 number of electron     688.0000276 magnetization      -0.0000000
 augmentation part      282.2269999 magnetization      -0.0000000

 Broyden mixing:
  rms(total) = 0.30001E-03    rms(broyden)= 0.30000E-03
  rms(prec ) = 0.31365E-03
  weight for this iteration     100.00

 eigenvalues of (default mixing * dielectric matrix)
  average eigenvalue GAMMA=   0.9374
  2.3559  1.0282  1.0282  0.6442  0.6442  0.5223  0.3385

 Free energy of the ion-electron system (eV)
  ---------------------------------------------------
  alpha Z        PSCENC =      2359.64475086
  Ewald energy   TEWEN  =    -62516.13314418
  -Hartree energ DENC   =    -42922.09330350
  -exchange      EXHF   =         0.00000000
  -V(xc)+E(xc)   XCENC  =      3286.52094345
  PAW double counting   =    112256.06605120  -115949.59480544
  entropy T*S    EENTRO =         0.00000000
  eigenvalues    EBANDS =    -10862.20073306
  atomic energy  EATOM  =    114020.06510763
  Solvation  Ediel_sol  =         0.00000000
  ---------------------------------------------------
  free energy    TOTEN  =      -327.72513304 eV

  energy without entropy =     -327.72513304  energy(sigma->0) =     -327.72513304


--------------------------------------------------------------------------------------------------------




--------------------------------------- Iteration      1(  13)  ---------------------------------------


    POTLOK:  cpu time    0.1217: real time    0.1225
    SETDIJ:  cpu time    0.0127: real time    0.0128
     EDDAV:  cpu time   92.4204: real time   93.0818
 BZINTS: Fermi energy:  4.925015;688.000000 electrons
         Band energy:***********;  BLOECHL correction:  0.000000
       DOS:  cpu time    0.0031: real time    0.0031
    CHARGE:  cpu time    1.1662: real time    1.1743
    MIXING:  cpu time    0.0016: real time    0.0016
    --------------------------------------------
      LOOP:  cpu time   93.7258: real time   94.3960

 eigenvalue-minimisations  : 14336
 total energy-change (2. order) :-0.1251465E-07  (-0.1000199E-07)
 number of electron     688.0000276 magnetization      -0.0000000
 augmentation part      282.2270093 magnetization      -0.0000000

 Broyden mixing:
  rms(total) = 0.35054E-03    rms(broyden)= 0.35054E-03
  rms(prec ) = 0.35493E-03
  weight for this iteration     100.00

 eigenvalues of (default mixing * dielectric matrix)
  average eigenvalue GAMMA=   1.0759
  2.8763  1.4237  1.4237  0.3379  0.7278  0.7278  0.5449  0.5449

 Free energy of the ion-electron system (eV)
  ---------------------------------------------------
  alpha Z        PSCENC =      2359.64475086
  Ewald energy   TEWEN  =    -62516.13314418
  -Hartree energ DENC   =    -42922.09330960
  -exchange      EXHF   =         0.00000000
  -V(xc)+E(xc)   XCENC  =      3286.52093699
  PAW double counting   =    112255.89675606  -115949.42529393
  entropy T*S    EENTRO =         0.00000000
  eigenvalues    EBANDS =    -10862.20093688
  atomic energy  EATOM  =    114020.06510763
  Solvation  Ediel_sol  =         0.00000000
  ---------------------------------------------------
  free energy    TOTEN  =      -327.72513305 eV

  energy without entropy =     -327.72513305  energy(sigma->0) =     -327.72513305


--------------------------------------------------------------------------------------------------------




--------------------------------------- Iteration      1(  14)  ---------------------------------------


    POTLOK:  cpu time    0.1200: real time    0.1217
    SETDIJ:  cpu time    0.0128: real time    0.0128
     EDDAV:  cpu time   80.7466: real time   81.3212
 BZINTS: Fermi energy:  4.924900;688.000000 electrons
         Band energy:***********;  BLOECHL correction:  0.000000
       DOS:  cpu time    0.0031: real time    0.0031
    CHARGE:  cpu time    1.1651: real time    1.1731
    MIXING:  cpu time    0.0016: real time    0.0016
    --------------------------------------------
      LOOP:  cpu time   82.0493: real time   82.6336

 eigenvalue-minimisations  : 11776
 total energy-change (2. order) :-0.3678724E-07  (-0.1113568E-07)
 number of electron     688.0000276 magnetization      -0.0000000
 augmentation part      282.2270087 magnetization      -0.0000000

 Broyden mixing:
  rms(total) = 0.18306E-03    rms(broyden)= 0.18306E-03
  rms(prec ) = 0.18478E-03
  weight for this iteration     100.00

 eigenvalues of (default mixing * dielectric matrix)
  average eigenvalue GAMMA=   1.1509
  3.4706  1.5634  1.5634  0.8581  0.8581  0.3379  0.5864  0.5864  0.5337

 Free energy of the ion-electron system (eV)
  ---------------------------------------------------
  alpha Z        PSCENC =      2359.64475086
  Ewald energy   TEWEN  =    -62516.13314418
  -Hartree energ DENC   =    -42922.08916479
  -exchange      EXHF   =         0.00000000
  -V(xc)+E(xc)   XCENC  =      3286.52097751
  PAW double counting   =    112256.16607421  -115949.69732697
  entropy T*S    EENTRO =         0.00000000
  eigenvalues    EBANDS =    -10862.20240735
  atomic energy  EATOM  =    114020.06510763
  Solvation  Ediel_sol  =         0.00000000
  ---------------------------------------------------
  free energy    TOTEN  =      -327.72513309 eV

  energy without entropy =     -327.72513309  energy(sigma->0) =     -327.72513309


--------------------------------------------------------------------------------------------------------




--------------------------------------- Iteration      1(  15)  ---------------------------------------


    POTLOK:  cpu time    0.1200: real time    0.1224
    SETDIJ:  cpu time    0.0127: real time    0.0127
     EDDAV:  cpu time   81.8485: real time   82.4289
 BZINTS: Fermi energy:  4.924802;688.000000 electrons
         Band energy:***********;  BLOECHL correction:  0.000000
       DOS:  cpu time    0.0032: real time    0.0032
    --------------------------------------------
      LOOP:  cpu time   81.9843: real time   82.5672

 eigenvalue-minimisations  : 11776
 total energy-change (2. order) : 0.2706656E-08  (-0.2621707E-08)
 number of electron     688.0000276 magnetization      -0.0000000
 augmentation part      282.2270087 magnetization      -0.0000000

 Free energy of the ion-electron system (eV)
  ---------------------------------------------------
  alpha Z        PSCENC =      2359.64475086
  Ewald energy   TEWEN  =    -62516.13314418
  -Hartree energ DENC   =    -42922.08893269
  -exchange      EXHF   =         0.00000000
  -V(xc)+E(xc)   XCENC  =      3286.52092396
  PAW double counting   =    112256.10197124  -115949.63308826
  entropy T*S    EENTRO =         0.00000000
  eigenvalues    EBANDS =    -10862.20272163
  atomic energy  EATOM  =    114020.06510763
  Solvation  Ediel_sol  =         0.00000000
  ---------------------------------------------------
  free energy    TOTEN  =      -327.72513308 eV

  energy without entropy =     -327.72513308  energy(sigma->0) =     -327.72513308


--------------------------------------------------------------------------------------------------------




 average (electrostatic) potential at core
  the test charge radii are     0.9698  0.8297  0.9500
  (the norm of the test charge is              1.0000)
       1 -86.6033       2 -86.6033       3 -86.6033       4 -86.6033       5 -86.6033
       6 -86.6033       7 -86.6033       8 -86.6033       9 -86.6033      10 -86.6033
      11 -86.6033      12 -86.6033      13 -86.6033      14 -86.6033      15 -86.6033
      16 -86.6033      17 -86.6033      18 -86.6033      19 -86.6033      20 -86.6033
      21 -86.6033      22 -86.6033      23 -86.6033      24 -86.6033      25 -86.6033
      26 -86.6033      27 -86.6033      28 -86.6033      29 -86.6033      30 -86.6033
      31 -86.6033      32 -86.6033      33 -80.6866      34 -80.6866      35 -80.6866
      36 -80.6866      37 -80.6866      38 -80.6866      39 -80.6866      40 -80.6866
      41 -80.6866      42 -80.6866      43 -80.6866      44 -80.6866      45 -80.6866
      46 -80.6866      47 -80.6866      48 -80.6866      49 -80.2044      50 -80.2044
      51 -80.2044      52 -80.2044      53 -80.2044      54 -80.2044      55 -80.2044
      56 -80.2044      57 -80.2044      58 -80.2044      59 -80.2044      60 -80.2044
      61 -80.2044      62 -80.2044      63 -80.2044      64 -80.2044
 
 
 
 E-fermi :   4.9248     XC(G=0): -10.4766     alpha+bet :-10.5620


 spin component 1

 k-point     1 :       0.0000    0.0000    0.0000
  band No.  band energies     occupation 
      1     -64.2984      1.00000
      2     -64.2984      1.00000
      3     -64.2984      1.00000
      4     -64.2984      1.00000
      5     -64.2984      1.00000
      6     -64.2984      1.00000
      7     -64.2984      1.00000
      8     -64.2984      1.00000
      9     -64.2683      1.00000
     10     -64.2683      1.00000
     11     -64.2683      1.00000
     12     -64.2683      1.00000
     13     -64.2683      1.00000
     14     -64.2683      1.00000
     15     -64.2683      1.00000
     16     -64.2683      1.00000
     17     -64.2635      1.00000
     18     -64.2635      1.00000
     19     -64.2635      1.00000
     20     -64.2635      1.00000
     21     -64.2635      1.00000
     22     -64.2635      1.00000
     23     -64.2635      1.00000
     24     -64.2635      1.00000
     25     -64.2602      1.00000
     26     -64.2602      1.00000
     27     -64.2602      1.00000
     28     -64.2601      1.00000
     29     -64.2601      1.00000
     30     -64.2601      1.00000
     31     -64.2601      1.00000
     32     -64.2601      1.00000
     33     -64.2579      1.00000
     34     -64.2579      1.00000
     35     -64.2579      1.00000
     36     -64.2579      1.00000
     37     -64.2579      1.00000
     38     -64.2579      1.00000
     39     -64.2579      1.00000
     40     -64.2579      1.00000
     41     -64.2344      1.00000
     42     -64.2344      1.00000
     43     -64.2344      1.00000
     44     -64.2344      1.00000
     45     -64.2344      1.00000
     46     -64.2344      1.00000
     47     -64.2344      1.00000
     48     -64.2344      1.00000
     49     -51.8485      1.00000
     50     -51.8485      1.00000
     51     -51.8485      1.00000
     52     -51.8485      1.00000
     53     -51.8485      1.00000
     54     -51.8485      1.00000
     55     -51.8485      1.00000
     56     -51.8485      1.00000
     57     -51.8437      1.00000
     58     -51.8437      1.00000
     59     -51.8437      1.00000
     60     -51.8437      1.00000
     61     -51.8437      1.00000
     62     -51.8437      1.00000
     63     -51.8437      1.00000
     64     -51.8437      1.00000
     65     -51.8145      1.00000
     66     -51.8145      1.00000
     67     -51.8145      1.00000
     68     -51.8145      1.00000
     69     -51.8145      1.00000
     70     -51.8145      1.00000
     71     -51.8145      1.00000
     72     -51.8145      1.00000
     73     -47.7104      1.00000
     74     -47.7104      1.00000
     75     -47.7104      1.00000
     76     -47.7104      1.00000
     77     -47.7104      1.00000
     78     -47.7104      1.00000
     79     -47.7104      1.00000
     80     -47.7104      1.00000
     81     -47.7024      1.00000
     82     -47.7024      1.00000
     83     -47.7024      1.00000
     84     -47.7024      1.00000
     85     -47.7024      1.00000
     86     -47.7024      1.00000
     87     -47.7024      1.00000
     88     -47.7023      1.00000
     89     -47.7006      1.00000
     90     -47.7006      1.00000
     91     -47.7006      1.00000
     92     -47.7006      1.00000
     93     -47.7006      1.00000
     94     -47.7006      1.00000
     95     -47.7006      1.00000
     96     -47.7006      1.00000
     97      -9.0990      1.00000
     98      -8.4925      1.00000
     99      -8.4799      1.00000
    100      -8.4799      1.00000
    101      -8.4796      1.00000
    102      -8.4796      1.00000
    103      -8.4642      1.00000
    104      -8.1784      1.00000
    105      -8.1644      1.00000
    106      -8.1400      1.00000
    107      -8.1318      1.00000
    108      -8.1220      1.00000
    109      -8.1220      1.00000
    110      -8.1220      1.00000
    111      -8.1220      1.00000
    112      -8.0931      1.00000
    113      -8.0931      1.00000
    114      -8.0931      1.00000
    115      -8.0931      1.00000
    116      -8.0630      1.00000
    117      -8.0382      1.00000
    118      -8.0279      1.00000
    119      -7.9968      1.00000
    120      -7.7516      1.00000
    121      -7.7463      1.00000
    122      -7.7423      1.00000
    123      -7.7354      1.00000
    124      -7.7354      1.00000
    125      -7.7348      1.00000
    126      -7.7348      1.00000
    127      -7.7245      1.00000
    128      -7.7178      1.00000
    129      -2.0561      1.00000
    130      -2.0277      1.00000
    131      -2.0277      1.00000
    132      -2.0184      1.00000
    133      -2.0184      1.00000
    134      -2.0044      1.00000
    135      -1.9572      1.00000
    136      -1.9553      1.00000
    137      -1.8980      1.00000
    138      -1.8834      1.00000
    139      -1.8712      1.00000
    140      -1.8674      1.00000
    141      -1.8674      1.00000
    142      -1.8641      1.00000
    143      -1.8623      1.00000
    144      -1.8623      1.00000
    145      -1.8448      1.00000
    146      -1.8213      1.00000
    147      -1.8209      1.00000
    148      -1.8209      1.00000
    149      -1.8161      1.00000
    150      -1.8161      1.00000
    151      -1.7977      1.00000
    152      -1.7812      1.00000
    153      -1.7802      1.00000
    154      -1.7802      1.00000
    155      -1.7794      1.00000
    156      -1.7636      1.00000
    157      -1.7636      1.00000
    158      -1.7358      1.00000
    159      -1.7308      1.00000
    160      -1.7308      1.00000
    161      -1.7301      1.00000
    162      -1.7253      1.00000
    163      -1.7253      1.00000
    164      -1.7181      1.00000
    165      -1.6999      1.00000
    166      -1.6858      1.00000
    167      -1.6837      1.00000
    168      -1.6792      1.00000
    169      -1.0162      1.00000
    170      -0.8992      1.00000
    171      -0.8736      1.00000
    172      -0.7855      1.00000
    173      -0.7208      1.00000
    174      -0.4973      1.00000
    175      -0.2200      1.00000
    176      -0.2200      1.00000
    177      -0.2151      1.00000
    178      -0.2151      1.00000
    179      -0.1812      1.00000
    180      -0.1763      1.00000
    181      -0.1057      1.00000
    182      -0.0203      1.00000
    183      -0.0203      1.00000
    184      -0.0095      1.00000
    185      -0.0095      1.00000
    186       0.0451      1.00000
    187       0.0513      1.00000
    188       0.1128      1.00000
    189       0.1128      1.00000
[...]
   -.420E+02 0.479E+00 0.188E+02   0.428E+02 -.458E+00 -.190E+02   -.856E+00 -.210E-01 0.184E+00   -.558E-04 -.725E-06 -.105E-05
   -.420E+02 0.479E+00 0.188E+02   0.428E+02 -.458E+00 -.190E+02   -.856E+00 -.210E-01 0.184E+00   -.558E-04 -.725E-06 -.105E-05
   -.420E+02 0.479E+00 0.188E+02   0.428E+02 -.458E+00 -.190E+02   -.856E+00 -.210E-01 0.184E+00   -.558E-04 -.725E-06 -.105E-05
   -.420E+02 0.479E+00 0.188E+02   0.428E+02 -.458E+00 -.190E+02   -.856E+00 -.210E-01 0.184E+00   -.558E-04 -.725E-06 -.105E-05
   0.420E+02 -.479E+00 0.188E+02   -.428E+02 0.458E+00 -.190E+02   0.856E+00 0.210E-01 0.184E+00   0.558E-04 0.725E-06 -.105E-05
   0.420E+02 -.479E+00 0.188E+02   -.428E+02 0.458E+00 -.190E+02   0.856E+00 0.210E-01 0.184E+00   0.558E-04 0.725E-06 -.105E-05
   0.420E+02 -.479E+00 0.188E+02   -.428E+02 0.458E+00 -.190E+02   0.856E+00 0.210E-01 0.184E+00   0.558E-04 0.725E-06 -.105E-05
   0.420E+02 -.479E+00 0.188E+02   -.428E+02 0.458E+00 -.190E+02   0.856E+00 0.210E-01 0.184E+00   0.558E-04 0.725E-06 -.105E-05
   0.479E+00 -.420E+02 0.188E+02   -.458E+00 0.428E+02 -.190E+02   -.210E-01 -.856E+00 0.184E+00   -.725E-06 -.558E-04 -.105E-05
   0.479E+00 -.420E+02 0.188E+02   -.458E+00 0.428E+02 -.190E+02   -.210E-01 -.856E+00 0.184E+00   -.725E-06 -.558E-04 -.105E-05
   0.479E+00 -.420E+02 0.188E+02   -.458E+00 0.428E+02 -.190E+02   -.210E-01 -.856E+00 0.184E+00   -.725E-06 -.558E-04 -.105E-05
   0.479E+00 -.420E+02 0.188E+02   -.458E+00 0.428E+02 -.190E+02   -.210E-01 -.856E+00 0.184E+00   -.725E-06 -.558E-04 -.105E-05
   -.479E+00 0.420E+02 0.188E+02   0.458E+00 -.428E+02 -.190E+02   0.210E-01 0.856E+00 0.184E+00   0.725E-06 0.558E-04 -.105E-05
   -.479E+00 0.420E+02 0.188E+02   0.458E+00 -.428E+02 -.190E+02   0.210E-01 0.856E+00 0.184E+00   0.725E-06 0.558E-04 -.105E-05
   -.479E+00 0.420E+02 0.188E+02   0.458E+00 -.428E+02 -.190E+02   0.210E-01 0.856E+00 0.184E+00   0.725E-06 0.558E-04 -.105E-05
   -.479E+00 0.420E+02 0.188E+02   0.458E+00 -.428E+02 -.190E+02   0.210E-01 0.856E+00 0.184E+00   0.725E-06 0.558E-04 -.105E-05
   -.891E-07 0.513E-07 -.221E+02   -.118E-12 -.853E-13 0.212E+02   -.127E-24 -.229E-24 0.894E+00   -.199E-11 -.126E-11 -.171E-04
   -.891E-07 0.513E-07 -.221E+02   -.613E-13 -.284E-13 0.212E+02   0.921E-25 0.000E+00 0.894E+00   0.125E-11 -.257E-11 -.171E-04
   -.891E-07 0.513E-07 -.221E+02   -.897E-13 0.000E+00 0.212E+02   -.711E-25 0.103E-24 0.894E+00   -.357E-11 0.124E-11 -.171E-04
   -.891E-07 0.513E-07 -.221E+02   -.897E-13 0.000E+00 0.212E+02   0.477E-25 0.103E-24 0.894E+00   0.246E-11 0.274E-11 -.171E-04
   0.513E-07 -.891E-07 -.221E+02   -.568E-13 0.114E-12 0.212E+02   0.905E-25 0.258E-24 0.894E+00   -.365E-11 -.204E-11 -.171E-04
   0.513E-07 -.891E-07 -.221E+02   -.853E-13 0.568E-13 0.212E+02   0.137E-25 -.775E-25 0.894E+00   0.334E-11 -.261E-11 -.171E-04
   0.513E-07 -.891E-07 -.221E+02   -.853E-13 0.142E-12 0.212E+02   -.230E-24 0.905E-25 0.894E+00   -.429E-11 0.264E-11 -.171E-04
   0.513E-07 -.891E-07 -.221E+02   -.568E-13 0.142E-12 0.212E+02   -.134E-24 0.129E-24 0.894E+00   0.354E-11 0.217E-11 -.171E-04
   -.891E-07 0.513E-07 -.221E+02   -.426E-13 -.165E-12 0.212E+02   -.167E-24 0.711E-25 0.894E+00   0.113E-11 -.103E-12 -.171E-04
   -.891E-07 0.512E-07 -.221E+02   -.142E-13 -.223E-12 0.212E+02   0.275E-25 0.000E+00 0.894E+00   -.218E-11 0.108E-11 -.171E-04
   -.891E-07 0.513E-07 -.221E+02   -.284E-13 -.135E-12 0.212E+02   0.824E-25 0.103E-24 0.894E+00   0.181E-11 0.180E-12 -.171E-04
   -.891E-07 0.513E-07 -.221E+02   0.000E+00 -.192E-12 0.212E+02   -.355E-25 -.207E-24 0.894E+00   -.300E-11 -.115E-11 -.171E-04
   0.513E-07 -.891E-07 -.221E+02   -.132E-13 -.402E-13 0.212E+02   -.134E-24 0.000E+00 0.894E+00   0.473E-11 -.110E-11 -.171E-04
   0.513E-07 -.891E-07 -.221E+02   -.109E-13 0.165E-13 0.212E+02   0.242E-26 -.775E-25 0.894E+00   -.516E-11 -.563E-12 -.171E-04
   0.513E-07 -.891E-07 -.221E+02   -.204E-13 0.473E-13 0.212E+02   0.166E-24 0.000E+00 0.894E+00   0.446E-11 0.104E-11 -.171E-04
   0.513E-07 -.891E-07 -.221E+02   -.180E-13 -.955E-14 0.212E+02   -.291E-25 -.103E-24 0.894E+00   -.503E-11 0.179E-11 -.171E-04
   0.341E-07 -.594E-07 -.179E+02   -.176E-12 -.320E-13 0.168E+02   0.323E-26 -.103E-24 0.106E+01   0.384E-11 -.195E-11 -.194E-04
   0.341E-07 -.594E-07 -.179E+02   -.147E-12 -.853E-13 0.168E+02   -.299E-24 -.233E-24 0.106E+01   -.357E-11 -.252E-11 -.194E-04
   0.341E-07 -.594E-07 -.179E+02   -.140E-12 -.604E-13 0.168E+02   0.108E-24 -.155E-24 0.106E+01   0.278E-11 0.218E-11 -.194E-04
   0.341E-07 -.594E-07 -.179E+02   -.155E-12 -.568E-13 0.168E+02   -.872E-25 0.207E-24 0.106E+01   -.289E-11 0.276E-11 -.194E-04
   -.594E-07 0.341E-07 -.179E+02   0.174E-12 0.284E-13 0.168E+02   0.221E-24 0.103E-24 0.106E+01   0.855E-12 -.203E-11 -.194E-04
   -.594E-07 0.341E-07 -.179E+02   0.139E-12 0.213E-13 0.168E+02   0.229E-25 -.267E-24 0.106E+01   -.109E-11 -.217E-11 -.194E-04
   -.594E-07 0.341E-07 -.179E+02   0.181E-12 0.213E-13 0.168E+02   0.180E-24 0.284E-24 0.106E+01   0.952E-12 0.185E-11 -.194E-04
   -.594E-07 0.341E-07 -.179E+02   0.160E-12 0.213E-13 0.168E+02   -.478E-24 0.000E+00 0.106E+01   -.158E-11 0.193E-11 -.194E-04
   0.341E-07 -.594E-07 -.179E+02   -.178E-12 0.400E-13 0.168E+02   -.109E-24 0.310E-24 0.106E+01   -.419E-11 -.825E-12 -.194E-04
   0.341E-07 -.594E-07 -.179E+02   -.178E-12 0.426E-13 0.168E+02   -.318E-24 -.381E-24 0.106E+01   0.413E-11 -.158E-13 -.194E-04
   0.341E-07 -.594E-07 -.179E+02   -.171E-12 0.702E-13 0.168E+02   0.149E-24 0.129E-24 0.106E+01   -.297E-11 0.119E-11 -.194E-04
   0.341E-07 -.594E-07 -.179E+02   -.171E-12 -.151E-13 0.168E+02   -.187E-25 0.263E-24 0.106E+01   0.283E-11 -.182E-13 -.194E-04
   -.594E-07 0.341E-07 -.179E+02   0.195E-12 0.114E-12 0.168E+02   -.367E-25 -.767E-26 0.106E+01   -.260E-11 0.870E-12 -.194E-04
   -.594E-07 0.341E-07 -.179E+02   0.159E-12 0.107E-12 0.168E+02   -.212E-24 -.388E-25 0.106E+01   0.223E-11 0.602E-12 -.194E-04
   -.594E-07 0.341E-07 -.179E+02   0.161E-12 0.135E-12 0.168E+02   -.452E-25 0.258E-25 0.106E+01   -.260E-11 -.528E-12 -.194E-04
   -.594E-07 0.341E-07 -.179E+02   0.153E-12 0.134E-12 0.168E+02   -.210E-24 -.233E-24 0.106E+01   0.234E-11 -.475E-12 -.194E-04
 -----------------------------------------------------------------------------------------------
   -.309E-06 -.309E-06 -.372E+02   -.870E-13 0.310E-12 0.639E-12   -.593E-15 -.999E-15 0.372E+02   -.649E-11 0.173E-11 -.618E-03
 
 
 POSITION                                       TOTAL-FORCE (eV/Angst)
 -----------------------------------------------------------------------------------
      1.36470      1.35693      1.26813         0.001414     -0.000703     -0.002715
      6.61567      1.51732      1.26813         0.001414     -0.000703     -0.002715
      1.52510      6.60789      1.26813         0.001414     -0.000703     -0.002715
      6.77606      6.76828      1.26813         0.001414     -0.000703     -0.002715
      4.04665      4.05443      1.26813        -0.001414      0.000703     -0.002715
      9.29762      4.21482      1.26813        -0.001414      0.000703     -0.002715
      4.20704      9.30539      1.26813        -0.001414      0.000703     -0.002715
      9.45801      9.46579      1.26813        -0.001414      0.000703     -0.002715
      1.42895      3.96646      9.08865         0.000703     -0.001414     -0.002715
      6.67991      4.12685      9.08865         0.000703     -0.001414     -0.002715
      1.58934      9.21742      9.08865         0.000703     -0.001414     -0.002715
      6.84030      9.37781      9.08865         0.000703     -0.001414     -0.002715
      3.98241      1.44490      9.08865        -0.000703      0.001414     -0.002715
      9.23337      1.60529      9.08865        -0.000703      0.001414     -0.002715
      4.14280      6.69586      9.08865        -0.000703      0.001414     -0.002715
      9.39376      6.85626      9.08865        -0.000703      0.001414     -0.002715
      1.34097      1.34875      6.48181        -0.001414      0.000703     -0.002715
      6.59194      1.50914      6.48181        -0.001414      0.000703     -0.002715
      1.50136      6.59972      6.48181        -0.001414      0.000703     -0.002715
      6.75233      6.76011      6.48181        -0.001414      0.000703     -0.002715
      4.07038      4.06260      6.48181         0.001414     -0.000703     -0.002715
      9.32135      4.22300      6.48181         0.001414     -0.000703     -0.002715
      4.23077      9.31357      6.48181         0.001414     -0.000703     -0.002715
      9.48174      9.47396      6.48181         0.001414     -0.000703     -0.002715
      3.97423      1.42117      3.87497         0.000703     -0.001414     -0.002715
      9.22520      1.58156      3.87497         0.000703     -0.001414     -0.002715
      4.13463      6.67213      3.87497         0.000703     -0.001414     -0.002715
      9.38559      6.83253      3.87497         0.000703     -0.001414     -0.002715
      1.43712      3.99019      3.87497        -0.000703      0.001414     -0.002715
      6.68809      4.15058      3.87497        -0.000703      0.001414     -0.002715
      1.59751      9.24115      3.87497        -0.000703      0.001414     -0.002715
      6.84848      9.40154      3.87497        -0.000703      0.001414     -0.002715
      0.00000      0.00000      5.24429        -0.000000     -0.000000      0.000931
      5.25096      0.16039      5.24429        -0.000000     -0.000000      0.000931
      0.16039      5.25096      5.24429        -0.000000     -0.000000      0.000931
      5.41136      5.41136      5.24429        -0.000000     -0.000000      0.000931
      2.62548      0.08020      2.63745        -0.000000     -0.000000      0.000931
      7.87645      0.24059      2.63745        -0.000000     -0.000000      0.000931
      2.78587      5.33116      2.63745        -0.000000     -0.000000      0.000931
      8.03684      5.49155      2.63745        -0.000000     -0.000000      0.000931
      2.70568      2.70568      0.03061        -0.000000     -0.000000      0.000931
      7.95664      2.86607      0.03061        -0.000000     -0.000000      0.000931
      2.86607      7.95664      0.03061        -0.000000     -0.000000      0.000931
      8.11703      8.11703      0.03061        -0.000000     -0.000000      0.000931
      0.08020      2.62548      7.85113        -0.000000     -0.000000      0.000931
      5.33116      2.78587      7.85113        -0.000000     -0.000000      0.000931
      0.24059      7.87645      7.85113        -0.000000     -0.000000      0.000931
      5.49155      8.03684      7.85113        -0.000000     -0.000000      0.000931
      0.00000      0.00000      0.03997        -0.000000     -0.000000      0.004499
      5.25096      0.16039      0.03997        -0.000000     -0.000000      0.004499
      0.16039      5.25096      0.03997        -0.000000     -0.000000      0.004499
      5.41136      5.41136      0.03997        -0.000000     -0.000000      0.004499
      2.62548      0.08020      7.86049        -0.000000     -0.000000      0.004499
      7.87645      0.24059      7.86049        -0.000000     -0.000000      0.004499
      2.78587      5.33116      7.86049        -0.000000     -0.000000      0.004499
      8.03684      5.49155      7.86049        -0.000000     -0.000000      0.004499
      2.70568      2.70568      5.25365        -0.000000     -0.000000      0.004499
      7.95664      2.86607      5.25365        -0.000000     -0.000000      0.004499
      2.86607      7.95664      5.25365        -0.000000     -0.000000      0.004499
      8.11703      8.11703      5.25365        -0.000000     -0.000000      0.004499
      0.08020      2.62548      2.64681        -0.000000     -0.000000      0.004499
      5.33116      2.78587      2.64681        -0.000000     -0.000000      0.004499
      0.24059      7.87645      2.64681        -0.000000     -0.000000      0.004499
      5.49155      8.03684      2.64681        -0.000000     -0.000000      0.004499
 -----------------------------------------------------------------------------------
    total drift:                               -0.000000     -0.000000      0.010079


--------------------------------------------------------------------------------------------------------



  FREE ENERGIE OF THE ION-ELECTRON SYSTEM (eV)
  ---------------------------------------------------
  free  energy   TOTEN  =      -327.72513308 eV

  energy  without entropy=     -327.72513308  energy(sigma->0) =     -327.72513308
 


--------------------------------------------------------------------------------------------------------


    POTLOK:  cpu time    0.1304: real time    0.1310


--------------------------------------------------------------------------------------------------------


 writing wavefunctions
     LOOP+:  cpu time 1654.1948: real time 1666.3693
    4ORBIT:  cpu time    0.0000: real time    0.0000
 


 total charge     
 
# of ion       s       p       d       tot
------------------------------------------
    1        1.314   2.409   0.000   3.723
    2        1.314   2.409   0.000   3.723
    3        1.314   2.409   0.000   3.723
    4        1.314   2.409   0.000   3.723
    5        1.314   2.409   0.000   3.723
    6        1.314   2.409   0.000   3.723
    7        1.314   2.409   0.000   3.723
    8        1.314   2.409   0.000   3.723
    9        1.314   2.409   0.000   3.723
   10        1.314   2.409   0.000   3.723
   11        1.314   2.409   0.000   3.723
   12        1.314   2.409   0.000   3.723
   13        1.314   2.409   0.000   3.723
   14        1.314   2.409   0.000   3.723
   15        1.314   2.409   0.000   3.723
   16        1.314   2.409   0.000   3.723
   17        1.314   2.409   0.000   3.723
   18        1.314   2.409   0.000   3.723
   19        1.314   2.409   0.000   3.723
   20        1.314   2.409   0.000   3.723
   21        1.314   2.409   0.000   3.723
   22        1.314   2.409   0.000   3.723
   23        1.314   2.409   0.000   3.723
   24        1.314   2.409   0.000   3.723
   25        1.314   2.409   0.000   3.723
   26        1.314   2.409   0.000   3.723
   27        1.314   2.409   0.000   3.723
   28        1.314   2.409   0.000   3.723
   29        1.314   2.409   0.000   3.723
   30        1.314   2.409   0.000   3.723
   31        1.314   2.409   0.000   3.723
   32        1.314   2.409   0.000   3.723
   33        0.259   6.202   8.916  15.378
   34        0.259   6.202   8.916  15.378
   35        0.259   6.202   8.916  15.378
   36        0.259   6.202   8.916  15.378
   37        0.259   6.202   8.917  15.378
   38        0.259   6.202   8.917  15.378
   39        0.259   6.202   8.917  15.378
   40        0.259   6.202   8.917  15.378
   41        0.259   6.202   8.916  15.378
   42        0.259   6.202   8.916  15.378
   43        0.259   6.202   8.916  15.378
   44        0.259   6.202   8.916  15.378
   45        0.259   6.202   8.917  15.378
   46        0.259   6.202   8.917  15.378
   47        0.259   6.202   8.917  15.378
   48        0.259   6.202   8.917  15.378
   49        0.349   6.350   5.821  12.520
   50        0.349   6.350   5.821  12.520
   51        0.349   6.350   5.821  12.520
   52        0.349   6.350   5.821  12.520
   53        0.350   6.350   5.821  12.520
   54        0.350   6.350   5.821  12.520
   55        0.350   6.350   5.821  12.520
   56        0.350   6.350   5.821  12.520
   57        0.349   6.350   5.821  12.520
   58        0.349   6.350   5.821  12.520
   59        0.349   6.350   5.821  12.520
   60        0.349   6.350   5.821  12.520
   61        0.350   6.350   5.821  12.520
   62        0.350   6.350   5.821  12.520
   63        0.350   6.350   5.821  12.520
   64        0.350   6.350   5.821  12.520
--------------------------------------------------
tot         51.783 277.921 235.795 565.499
 


 magnetization (x)
 
# of ion       s       p       d       tot
------------------------------------------
    1       -0.001  -0.015   0.000  -0.016
    2       -0.001  -0.015   0.000  -0.016
    3       -0.001  -0.015   0.000  -0.016
    4       -0.001  -0.015   0.000  -0.016
    5       -0.001  -0.015   0.000  -0.016
    6       -0.001  -0.015   0.000  -0.016
    7       -0.001  -0.015   0.000  -0.016
    8       -0.001  -0.015   0.000  -0.016
    9        0.001   0.015   0.000   0.016
   10        0.001   0.015   0.000   0.016
   11        0.001   0.015   0.000   0.016
   12        0.001   0.015   0.000   0.016
   13        0.001   0.015   0.000   0.016
   14        0.001   0.015   0.000   0.016
   15        0.001   0.015   0.000   0.016
   16        0.001   0.015   0.000   0.016
   17       -0.001  -0.015   0.000  -0.016
   18       -0.001  -0.015   0.000  -0.016
   19       -0.001  -0.015   0.000  -0.016
   20       -0.001  -0.015   0.000  -0.016
   21       -0.001  -0.015   0.000  -0.016
   22       -0.001  -0.015   0.000  -0.016
   23       -0.001  -0.015   0.000  -0.016
   24       -0.001  -0.015   0.000  -0.016
   25        0.001   0.015   0.000   0.016
   26        0.001   0.015   0.000   0.016
   27        0.001   0.015   0.000   0.016
   28        0.001   0.015   0.000   0.016
   29        0.001   0.015   0.000   0.016
   30        0.001   0.015   0.000   0.016
   31        0.001   0.015   0.000   0.016
   32        0.001   0.015   0.000   0.016
   33        0.000   0.000   0.001   0.001
   34        0.000   0.000   0.001   0.001
   35        0.000   0.000   0.001   0.001
   36        0.000   0.000   0.001   0.001
   37       -0.000  -0.000  -0.001  -0.001
   38       -0.000  -0.000  -0.001  -0.001
   39       -0.000  -0.000  -0.001  -0.001
   40       -0.000  -0.000  -0.001  -0.001
   41        0.000   0.000   0.001   0.001
   42        0.000   0.000   0.001   0.001
   43        0.000   0.000   0.001   0.001
   44        0.000   0.000   0.001   0.001
   45       -0.000  -0.000  -0.001  -0.001
   46       -0.000  -0.000  -0.001  -0.001
   47       -0.000  -0.000  -0.001  -0.001
   48       -0.000  -0.000  -0.001  -0.001
   49        0.020   0.054   3.670   3.743
   50        0.020   0.054   3.670   3.743
   51        0.020   0.054   3.670   3.743
   52        0.020   0.054   3.670   3.743
   53       -0.020  -0.054  -3.670  -3.743
   54       -0.020  -0.054  -3.670  -3.743
   55       -0.020  -0.054  -3.670  -3.743
   56       -0.020  -0.054  -3.670  -3.743
   57        0.020   0.054   3.670   3.743
   58        0.020   0.054   3.670   3.743
   59        0.020   0.054   3.670   3.743
   60        0.020   0.054   3.670   3.743
   61       -0.020  -0.054  -3.670  -3.743
   62       -0.020  -0.054  -3.670  -3.743
   63       -0.020  -0.054  -3.670  -3.743
   64       -0.020  -0.054  -3.670  -3.743
--------------------------------------------------
tot         -0.001   0.002  -0.001  -0.001
 
 BZINTS: Fermi energy:  4.924802;688.000000 electrons
         Band energy:***********;  BLOECHL correction:  0.000000

 total amount of memory used by VASP MPI-rank0   300225. kBytes
=======================================================================

   base      :      30000. kBytes
   nonl-proj :     174956. kBytes
   fftplans  :       4588. kBytes
   grid      :      69719. kBytes
   one-center:       1990. kBytes
   wavefun   :      18972. kBytes
 
  
  
 General timing and accounting informations for this job:
 ========================================================
  
                  Total CPU time used (sec):     1704.450
                            User time (sec):     1694.387
                          System time (sec):       10.063
                         Elapsed time (sec):     1717.992
  
                   Maximum memory used (kb):      663676.
                   Average memory used (kb):           0.
  
                          Minor page faults:       344193
                          Major page faults:         5729
                 Voluntary context switches:         7027
