 vasp.5.4.4.18Apr17-6-g9f103f2a35 (build Oct 30 2023 17:49:44) complex          
  
 executed on             LinuxIFC date 2024.12.05  21:29:39
 running on  256 total cores
 distrk:  each k-point on  256 cores,    1 groups
 distr:  one band on NCORES_PER_BAND=   1 cores,  256 groups


--------------------------------------------------------------------------------------------------------


 INCAR:
 POTCAR:    PAW_PBE S 06Sep2000                   
 POTCAR:     PAW_PBE Cu_pv 06Sep2000              
 POTCAR:     PAW_PBE Fe_pv 02Aug2007              

 ----------------------------------------------------------------------------- 
|                                                                             |
|           W    W    AA    RRRRR   N    N  II  N    N   GGGG   !!!           |
|           W    W   A  A   R    R  NN   N  II  NN   N  G    G  !!!           |
|           W    W  A    A  R    R  N N  N  II  N N  N  G       !!!           |
|           W WW W  AAAAAA  RRRRR   N  N N  II  N  N N  G  GGG   !            |
|           WW  WW  A    A  R   R   N   NN  II  N   NN  G    G                |
|           W    W  A    A  R    R  N    N  II  N    N   GGGG   !!!           |
|                                                                             |
|      For optimal performance we recommend to set                            |
|        NCORE= 4 - approx SQRT( number of cores)                             |
|      NCORE specifies how many cores store one orbital (NPAR=cpu/NCORE).     |
|      This setting can  greatly improve the performance of VASP for DFT.     |
|      The default,   NCORE=1            might be grossly inefficient         |
|      on modern multi-core architectures or massively parallel machines.     |
|      Do your own testing !!!!                                               |
|      Unfortunately you need to use the default for GW and RPA calculations. |
|      (for HF NCORE is supported but not extensively tested yet)             |
|                                                                             |
 ----------------------------------------------------------------------------- 

 POTCAR:    PAW_PBE S 06Sep2000                   
   SHA256 =  0fc7481fb0695f01bdc6462160264c5c84044ae9ec85a907d398b887a2bc3132 S/
   COPYR  = (c) Copyright 06Sep2000 Georg Kresse                                
   COPYR  = This file is part of the software VASP. Any use, copying, and all ot
   COPYR  = If you do not have a valid VASP license, you may not use, copy or di
   VRHFIN =S : s2p4                                                             
   LEXCH  = PE                                                                  
   EATOM  =   276.8230 eV,   20.3459 Ry                                         
                                                                                
   TITEL  = PAW_PBE S 06Sep2000                                                 
   LULTRA =        F    use ultrasoft PP ?                                      
   IUNSCR =        1    unscreen: 0-lin 1-nonlin 2-no                           
   RPACOR =    1.500    partial core radius                                     
   POMASS =   32.066; ZVAL   =    6.000    mass and valenz                      
   RCORE  =    1.900    outmost cutoff radius                                   
   RWIGS  =    2.200; RWIGS  =    1.164    wigner-seitz radius (au A)           
   ENMAX  =  258.689; ENMIN  =  194.016 eV                                      
   ICORE  =        2    local potential                                         
   LCOR   =        T    correct aug charges                                     
   LPAW   =        T    paw PP                                                  
   EAUG   =  335.092                                                            
   DEXC   =    0.000                                                            
   RMAX   =    1.942    core radius for proj-oper                               
   RAUG   =    1.300    factor for augmentation sphere                          
   RDEP   =    1.954    radius for radial grids                                 
   RDEPT  =    1.744    core radius for aug-charge                              
                                                                                
   Atomic configuration                                                         
    6 entries                                                                   
     n  l   j            E        occ.                                          
     1  0  0.50     -2405.8406   2.0000                                         
     2  0  0.50      -211.7007   2.0000                                         
     2  1  1.50      -156.4958   6.0000                                         
     3  0  0.50       -17.2562   2.0000                                         
     3  1  0.50        -7.0085   4.0000                                         
     3  2  1.50        -6.8029   0.0000                                         
   Description                                                                  
     l       E           TYP  RCUT    TYP  RCUT                                 
     0    -17.2561641     23  1.900                                             
     0    -15.8743224     23  1.900                                             
     1     -7.0085400     23  1.900                                             
     1     -2.7779785     23  1.900                                             
     2     -6.8029130     23  1.900                                             
  local pseudopotential read in
  partial core-charges read in
  partial kinetic energy density read in
  atomic valenz-charges read in
  non local Contribution for L=           0  read in
    real space projection operators read in
  non local Contribution for L=           0  read in
    real space projection operators read in
  non local Contribution for L=           1  read in
    real space projection operators read in
  non local Contribution for L=           1  read in
    real space projection operators read in
    PAW grid and wavefunctions read in
 
   number of l-projection  operators is LMAX  =           4
   number of lm-projection operators is LMMAX =           8
 
 POTCAR:     PAW_PBE Cu_pv 06Sep2000              
   SHA256 =  cb7b504e2ea725fe1f25c85a9ac77d4012ce94cd394135b722c4e25ec297f1cb Cu
   COPYR  = (c) Copyright 06Sep2000 Georg Kresse                                
   COPYR  = This file is part of the software VASP. Any use, copying, and all ot
   COPYR  = If you do not have a valid VASP license, you may not use, copy or di
   VRHFIN =Cu: d10 p1                                                           
   LEXCH  = PE                                                                  
   EATOM  =  4120.1201 eV,  302.8203 Ry                                         
                                                                                
   TITEL  = PAW_PBE Cu_pv 06Sep2000                                             
   LULTRA =        F    use ultrasoft PP ?                                      
   IUNSCR =        1    unscreen: 0-lin 1-nonlin 2-no                           
   RPACOR =    1.500    partial core radius                                     
   POMASS =   63.546; ZVAL   =   17.000    mass and valenz                      
   RCORE  =    2.000    outmost cutoff radius                                   
   RWIGS  =    2.000; RWIGS  =    1.058    wigner-seitz radius (au A)           
   ENMAX  =  368.648; ENMIN  =  276.486 eV                                      
   RCLOC  =    1.304    cutoff for local pot                                    
   LCOR   =        T    correct aug charges                                     
   LPAW   =        T    paw PP                                                  
   EAUG   =  758.233                                                            
   DEXC   =    0.000                                                            
   RMAX   =    2.046    core radius for proj-oper                               
   RAUG   =    1.300    factor for augmentation sphere                          
   RDEP   =    2.025    radius for radial grids                                 
   RDEPT  =    1.558    core radius for aug-charge                              
                                                                                
   Atomic configuration                                                         
    8 entries                                                                   
     n  l   j            E        occ.                                          
     1  0  0.50     -8850.2467   2.0000                                         
     2  0  0.50     -1062.3498   2.0000                                         
     2  1  1.50      -916.8226   6.0000                                         
     3  0  0.50      -114.6929   2.0000                                         
     3  1  1.50       -72.1325   6.0000                                         
     3  2  2.50        -5.0394  10.0000                                         
     4  0  0.50        -4.6097   1.0000                                         
     4  3  2.50        -1.3606   0.0000                                         
   Description                                                                  
     l       E           TYP  RCUT    TYP  RCUT                                 
     1    -72.1324777     23  1.700                                             
     1     -1.3605826     23  1.700                                             
     2     -5.0393776     23  2.000                                             
     2     -6.3999602     23  2.000                                             
     0     -4.6097062     23  1.800                                             
     0     14.1620818     23  1.800                                             
  local pseudopotential read in
  partial core-charges read in
  partial kinetic energy density read in
  atomic valenz-charges read in
  non local Contribution for L=           1  read in
    real space projection operators read in
  non local Contribution for L=           1  read in
    real space projection operators read in
  non local Contribution for L=           2  read in
    real space projection operators read in
  non local Contribution for L=           2  read in
    real space projection operators read in
  non local Contribution for L=           0  read in
    real space projection operators read in
  non local Contribution for L=           0  read in
    real space projection operators read in
    PAW grid and wavefunctions read in
 
   number of l-projection  operators is LMAX  =           6
   number of lm-projection operators is LMMAX =          18
 
 POTCAR:     PAW_PBE Fe_pv 02Aug2007              
   SHA256 =  5d22e414b1f82158bf2c7ecb8b97b28fd0923e48cadc1c3bf74d524558f5dd32 Fe
   COPYR  = (c) Copyright 02Aug2007 Georg Kresse                                
   COPYR  = This file is part of the software VASP. Any use, copying, and all ot
   COPYR  = If you do not have a valid VASP license, you may not use, copy or di
   VRHFIN =Fe:  3pd7s1                                                          
   LEXCH  = PE                                                                  
   EATOM  =  2457.4239 eV,  180.6156 Ry                                         
                                                                                
   TITEL  = PAW_PBE Fe_pv 02Aug2007                                             
   LULTRA =        F    use ultrasoft PP ?                                      
   IUNSCR =        1    unscreen: 0-lin 1-nonlin 2-no                           
   RPACOR =    1.750    partial core radius                                     
   POMASS =   55.847; ZVAL   =   14.000    mass and valenz                      
   RCORE  =    2.200    outmost cutoff radius                                   
   RWIGS  =    2.200; RWIGS  =    1.164    wigner-seitz radius (au A)           
   ENMAX  =  293.238; ENMIN  =  219.928 eV                                      
   ICORE  =        3    local potential                                         
   LCOR   =        T    correct aug charges                                     
   LPAW   =        T    paw PP                                                  
   EAUG   =  578.342                                                            
   DEXC   =    0.000                                                            
   RMAX   =    2.249    core radius for proj-oper                               
   RAUG   =    1.300    factor for augmentation sphere                          
   RDEP   =    2.296    radius for radial grids                                 
   RDEPT  =    1.766    core radius for aug-charge                              
                                                                                
   Atomic configuration                                                         
    8 entries                                                                   
     n  l   j            E        occ.                                          
     1  0  0.50     -6993.8440   2.0000                                         
     2  0  0.50      -814.6047   2.0000                                         
     2  1  1.50      -693.3689   6.0000                                         
     3  0  0.50       -89.4732   2.0000                                         
     3  1  1.50       -55.6373   6.0000                                         
     3  2  2.50        -3.8151   7.0000                                         
     4  0  0.50        -4.2551   1.0000                                         
     4  3  2.50        -1.3606   0.0000                                         
   Description                                                                  
     l       E           TYP  RCUT    TYP  RCUT                                 
     1    -55.6372668     23  2.000                                             
     1     -5.4423304     23  2.000                                             
     2     -3.8151096     23  2.200                                             
     2     -5.1756922     23  2.200                                             
     0     -4.2550951     23  2.200                                             
     0     27.2116520     23  2.200                                             
     3     -1.3605826     23  2.200                                             
  local pseudopotential read in
  partial core-charges read in
  partial kinetic energy density read in
  atomic valenz-charges read in
  non local Contribution for L=           1  read in
    real space projection operators read in
  non local Contribution for L=           1  read in
    real space projection operators read in
  non local Contribution for L=           2  read in
    real space projection operators read in
  non local Contribution for L=           2  read in
    real space projection operators read in
  non local Contribution for L=           0  read in
    real space projection operators read in
  non local Contribution for L=           0  read in
    real space projection operators read in
    PAW grid and wavefunctions read in
 
   number of l-projection  operators is LMAX  =           6
   number of lm-projection operators is LMMAX =          18
 

 ----------------------------------------------------------------------------- 
|                                                                             |
|  ADVICE TO THIS USER RUNNING 'VASP/VAMP'   (HEAR YOUR MASTER'S VOICE ...):  |
|                                                                             |
|      You enforced a specific xc-type in the INCAR file,                     |
|      a different type was found on the POTCAR file                          |
|          I HOPE YOU KNOW, WHAT YOU ARE  DOING                               |
|                                                                             |
 ----------------------------------------------------------------------------- 

  PAW_PBE S 06Sep2000                   :
 energy of atom  1       EATOM= -276.8230
 kinetic energy error for atom=    0.0007 (will be added to EATOM!!)
   PAW_PBE Cu_pv 06Sep2000              :
 energy of atom  2       EATOM=-4120.1201
 kinetic energy error for atom=    0.0094 (will be added to EATOM!!)
   PAW_PBE Fe_pv 02Aug2007              :
 energy of atom  3       EATOM=-2457.4239
 kinetic energy error for atom=    0.0025 (will be added to EATOM!!)
 
 
 POSCAR: Fe4 Cu4 S8                              
  positions in direct lattice
  velocities in cartesian coordinates
 exchange correlation table for  LEXCH =       14
   RHO(1)=    0.500       N(1)  =     2000
   RHO(2)=  100.500       N(2)  =     4000
 


--------------------------------------------------------------------------------------------------------


 ion  position               nearest neighbor table
   1  0.254  0.227  0.127-  11 2.25  16 2.25  10 2.30  13 2.32
   2  0.746  0.727  0.123-  10 2.25  13 2.25  11 2.30  16 2.32
   3  0.250  0.736  0.875-  13 2.27  14 2.27  11 2.28  12 2.28
   4  0.750  0.238  0.875-  12 2.26  11 2.26  13 2.31  14 2.31
   5  0.246  0.227  0.623-  12 2.25  15 2.25   9 2.30  14 2.32
   6  0.754  0.727  0.627-   9 2.25  14 2.25  12 2.30  15 2.32
   7  0.750  0.236  0.375-  15 2.27  16 2.27   9 2.28  10 2.28
   8  0.250  0.738  0.375-   9 2.26  10 2.26  16 2.31  15 2.31
   9  0.990  0.018  0.500-   6 2.25   8 2.26   7 2.28   5 2.30
  10  0.510  0.018  0.250-   2 2.25   8 2.26   7 2.28   1 2.30
  11  0.490  0.518  0.000-   1 2.25   4 2.26   3 2.28   2 2.30
  12  0.010  0.518  0.750-   5 2.25   4 2.26   3 2.28   6 2.30
  13  0.994  0.018  0.002-   2 2.25   3 2.27   4 2.31   1 2.32
  14  0.506  0.018  0.748-   6 2.25   3 2.27   4 2.31   5 2.32
  15  0.494  0.518  0.502-   5 2.25   7 2.27   8 2.31   6 2.32
  16  0.006  0.518  0.248-   1 2.25   7 2.27   8 2.31   2 2.32
 
  LATTYP: Found a simple monoclinic cell.
 ALAT       =    12.4498025102
 B/A-ratio  =     0.4239691639
 C/A-ratio  =     1.7942830255
 COS(beta)  =    -0.9810367826
  
  Lattice vectors:
  
 A1 = (  -6.1459200000,   0.0000000000, -10.8270610000)
 A2 = (   0.0000000000,  -5.2783323615,   0.0000000000)
 A3 = (   7.0530660000,   0.0000000000,  21.1957890000)


Analysis of symmetry for initial positions (statically):
=====================================================================
 Subroutine PRICEL returns following result:
 
  LATTYP: Found a base centered monoclinic cell.
 ALAT       =    10.8156798301
 B/A-ratio  =     0.4880259442
 C/A-ratio  =     0.9623375513
 COS(beta)  =    -0.7889660173
  
  Lattice vectors:
  
 A1 = (  -2.1658140000,  -2.6391661807,   4.9551975000)
 A2 = (  -2.1658140000,   2.6391661807,   4.9551975000)
 A3 = (  -0.9071460000,   0.0000000000, -10.3687280000)
 
   2 primitive cells build up your supercell.
 

 Routine SETGRP: Setting up the symmetry group for a 
 simple monoclinic supercell.


 Subroutine GETGRP returns: Found  2 space group operations
 (whereof  1 operations were pure point group operations)
 out of a pool of  4 trial point group operations.


The static configuration has the point symmetry C_1 .
 The point group associated with its full space group is C_2 .


Analysis of symmetry for dynamics (positions and initial velocities):
=====================================================================
 Subroutine PRICEL returns following result:
 
  LATTYP: Found a base centered monoclinic cell.
 ALAT       =    10.8156798301
 B/A-ratio  =     0.4880259442
 C/A-ratio  =     0.9623375513
 COS(beta)  =    -0.7889660173
  
  Lattice vectors:
  
 A1 = (  -2.1658140000,  -2.6391661807,   4.9551975000)
 A2 = (  -2.1658140000,   2.6391661807,   4.9551975000)
 A3 = (  -0.9071460000,   0.0000000000, -10.3687280000)
 
   2 primitive cells build up your supercell.
 

 Routine SETGRP: Setting up the symmetry group for a 
 simple monoclinic supercell.


 Subroutine GETGRP returns: Found  2 space group operations
 (whereof  1 operations were pure point group operations)
 out of a pool of  4 trial point group operations.


The dynamic configuration has the point symmetry C_1 .
 The point group associated with its full space group is C_2 .


Analysis of structural, dynamic, and magnetic symmetry:
=====================================================================
 Subroutine PRICEL returns following result:
 
  LATTYP: Found a base centered monoclinic cell.
 ALAT       =    10.8156798301
 B/A-ratio  =     0.4880259442
 C/A-ratio  =     0.9623375513
 COS(beta)  =    -0.7889660173
  
  Lattice vectors:
  
 A1 = (  -2.1658140000,  -2.6391661807,   4.9551975000)
 A2 = (  -2.1658140000,   2.6391661807,   4.9551975000)
 A3 = (  -0.9071460000,   0.0000000000, -10.3687280000)
 
   2 primitive cells build up your supercell.
 

 Routine SETGRP: Setting up the symmetry group for a 
 simple monoclinic supercell.


 Subroutine GETGRP returns: Found  2 space group operations
 (whereof  1 operations were pure point group operations)
 out of a pool of  4 trial point group operations.


The (compounded) configuration has the point symmetry C_1 .
 The point group associated with its full space group is C_2 .


 Subroutine INISYM returns: Found  2 space group operations
 (whereof  1 operations are pure point group operations),
 and found     2 'primitive' translations

 
 
 KPOINTS: Automatic mesh                          

Automatic generation of k-mesh.
Space group operators:
 irot       det(A)        alpha          n_x          n_y          n_z        tau_x        tau_y        tau_z
    1     1.000000     0.000000     1.000000     0.000000     0.000000     0.000000     0.000000     0.000000
    2     1.000000   180.000000     0.000000     1.000000     0.000000    -0.500000     0.000000    -0.250000
 
 Subroutine IBZKPT returns following result:
 ===========================================
 
 Found     60 irreducible k-points:
 
 Following reciprocal coordinates:
            Coordinates               Weight
  0.000000  0.000000  0.000000      1.000000
  0.166667  0.000000  0.000000      2.000000
  0.333333  0.000000  0.000000      2.000000
  0.500000  0.000000  0.000000      1.000000
  0.000000  0.166667  0.000000      1.000000
  0.166667  0.166667  0.000000      2.000000
  0.333333  0.166667  0.000000      2.000000
  0.500000  0.166667  0.000000      1.000000
  0.000000  0.333333  0.000000      1.000000
  0.166667  0.333333  0.000000      2.000000
  0.333333  0.333333  0.000000      2.000000
  0.500000  0.333333  0.000000      1.000000
  0.000000  0.500000  0.000000      1.000000
  0.166667  0.500000  0.000000      2.000000
  0.333333  0.500000  0.000000      2.000000
  0.500000  0.500000  0.000000      1.000000
  0.000000 -0.333333  0.000000      1.000000
  0.166667 -0.333333  0.000000      2.000000
  0.333333 -0.333333  0.000000      2.000000
  0.500000 -0.333333  0.000000      1.000000
  0.000000 -0.166667  0.000000      1.000000
  0.166667 -0.166667  0.000000      2.000000
  0.333333 -0.166667  0.000000      2.000000
  0.500000 -0.166667  0.000000      1.000000
  0.000000  0.000000  0.333333      2.000000
  0.166667  0.000000  0.333333      2.000000
  0.333333  0.000000  0.333333      2.000000
  0.500000  0.000000  0.333333      2.000000
 -0.333333  0.000000  0.333333      2.000000
 -0.166667  0.000000  0.333333      2.000000
  0.000000  0.166667  0.333333      2.000000
  0.166667  0.166667  0.333333      2.000000
  0.333333  0.166667  0.333333      2.000000
  0.500000  0.166667  0.333333      2.000000
 -0.333333  0.166667  0.333333      2.000000
 -0.166667  0.166667  0.333333      2.000000
  0.000000  0.333333  0.333333      2.000000
  0.166667  0.333333  0.333333      2.000000
  0.333333  0.333333  0.333333      2.000000
  0.500000  0.333333  0.333333      2.000000
 -0.333333  0.333333  0.333333      2.000000
 -0.166667  0.333333  0.333333      2.000000
  0.000000  0.500000  0.333333      2.000000
  0.166667  0.500000  0.333333      2.000000
  0.333333  0.500000  0.333333      2.000000
  0.500000  0.500000  0.333333      2.000000
 -0.333333  0.500000  0.333333      2.000000
 -0.166667  0.500000  0.333333      2.000000
  0.000000 -0.333333  0.333333      2.000000
  0.166667 -0.333333  0.333333      2.000000
  0.333333 -0.333333  0.333333      2.000000
  0.500000 -0.333333  0.333333      2.000000
 -0.333333 -0.333333  0.333333      2.000000
 -0.166667 -0.333333  0.333333      2.000000
  0.000000 -0.166667  0.333333      2.000000
  0.166667 -0.166667  0.333333      2.000000
  0.333333 -0.166667  0.333333      2.000000
  0.500000 -0.166667  0.333333      2.000000
 -0.333333 -0.166667  0.333333      2.000000
 -0.166667 -0.166667  0.333333      2.000000
 
 Following cartesian coordinates:
            Coordinates               Weight
  0.000000  0.000000  0.000000      1.000000
  0.032059  0.000000 -0.002805      2.000000
  0.064119  0.000000 -0.005610      2.000000
  0.096178  0.000000 -0.008415      1.000000
  0.000000  0.031576  0.000000      1.000000
  0.032059  0.031576 -0.002805      2.000000
  0.064119  0.031576 -0.005610      2.000000
  0.096178  0.031576 -0.008415      1.000000
  0.000000  0.063151  0.000000      1.000000
  0.032059  0.063151 -0.002805      2.000000
  0.064119  0.063151 -0.005610      2.000000
  0.096178  0.063151 -0.008415      1.000000
  0.000000  0.094727  0.000000      1.000000
  0.032059  0.094727 -0.002805      2.000000
  0.064119  0.094727 -0.005610      2.000000
  0.096178  0.094727 -0.008415      1.000000
  0.000000 -0.063151  0.000000      1.000000
  0.032059 -0.063151 -0.002805      2.000000
  0.064119 -0.063151 -0.005610      2.000000
  0.096178 -0.063151 -0.008415      1.000000
  0.000000 -0.031576  0.000000      1.000000
  0.032059 -0.031576 -0.002805      2.000000
  0.064119 -0.031576 -0.005610      2.000000
  0.096178 -0.031576 -0.008415      1.000000
 -0.002834  0.000000  0.032396      2.000000
  0.029225  0.000000  0.029591      2.000000
  0.061285  0.000000  0.026786      2.000000
  0.093344  0.000000  0.023981      2.000000
 -0.066953  0.000000  0.038006      2.000000
 -0.034894  0.000000  0.035201      2.000000
 -0.002834  0.031576  0.032396      2.000000
  0.029225  0.031576  0.029591      2.000000
  0.061285  0.031576  0.026786      2.000000
  0.093344  0.031576  0.023981      2.000000
 -0.066953  0.031576  0.038006      2.000000
 -0.034894  0.031576  0.035201      2.000000
 -0.002834  0.063151  0.032396      2.000000
  0.029225  0.063151  0.029591      2.000000
  0.061285  0.063151  0.026786      2.000000
  0.093344  0.063151  0.023981      2.000000
 -0.066953  0.063151  0.038006      2.000000
 -0.034894  0.063151  0.035201      2.000000
 -0.002834  0.094727  0.032396      2.000000
  0.029225  0.094727  0.029591      2.000000
  0.061285  0.094727  0.026786      2.000000
  0.093344  0.094727  0.023981      2.000000
 -0.066953  0.094727  0.038006      2.000000
 -0.034894  0.094727  0.035201      2.000000
 -0.002834 -0.063151  0.032396      2.000000
  0.029225 -0.063151  0.029591      2.000000
  0.061285 -0.063151  0.026786      2.000000
  0.093344 -0.063151  0.023981      2.000000
 -0.066953 -0.063151  0.038006      2.000000
 -0.034894 -0.063151  0.035201      2.000000
 -0.002834 -0.031576  0.032396      2.000000
  0.029225 -0.031576  0.029591      2.000000
  0.061285 -0.031576  0.026786      2.000000
  0.093344 -0.031576  0.023981      2.000000
 -0.066953 -0.031576  0.038006      2.000000
 -0.034894 -0.031576  0.035201      2.000000
 
 TETIRR: Found    648 inequivalent tetrahedra from      648
 
 Subroutine IBZKPT_HF returns following result:
 ==============================================
 
 Found    108 k-points in 1st BZ
 the following    108 k-points will be used (e.g. in the exchange kernel)
 Following reciprocal coordinates:   # in IRBZ
  0.000000  0.000000  0.000000    0.00925926   1 t-inv F
  0.166667  0.000000  0.000000    0.00925926   2 t-inv F
  0.333333  0.000000  0.000000    0.00925926   3 t-inv F
  0.500000  0.000000  0.000000    0.00925926   4 t-inv F
  0.000000  0.166667  0.000000    0.00925926   5 t-inv F
  0.166667  0.166667  0.000000    0.00925926   6 t-inv F
  0.333333  0.166667  0.000000    0.00925926   7 t-inv F
  0.500000  0.166667  0.000000    0.00925926   8 t-inv F
  0.000000  0.333333  0.000000    0.00925926   9 t-inv F
  0.166667  0.333333  0.000000    0.00925926  10 t-inv F
  0.333333  0.333333  0.000000    0.00925926  11 t-inv F
  0.500000  0.333333  0.000000    0.00925926  12 t-inv F
  0.000000  0.500000  0.000000    0.00925926  13 t-inv F
  0.166667  0.500000  0.000000    0.00925926  14 t-inv F
  0.333333  0.500000  0.000000    0.00925926  15 t-inv F
  0.500000  0.500000  0.000000    0.00925926  16 t-inv F
  0.000000 -0.333333  0.000000    0.00925926  17 t-inv F
  0.166667 -0.333333  0.000000    0.00925926  18 t-inv F
  0.333333 -0.333333  0.000000    0.00925926  19 t-inv F
  0.500000 -0.333333  0.000000    0.00925926  20 t-inv F
  0.000000 -0.166667  0.000000    0.00925926  21 t-inv F
  0.166667 -0.166667  0.000000    0.00925926  22 t-inv F
  0.333333 -0.166667  0.000000    0.00925926  23 t-inv F
  0.500000 -0.166667  0.000000    0.00925926  24 t-inv F
  0.000000  0.000000  0.333333    0.00925926  25 t-inv F
  0.166667  0.000000  0.333333    0.00925926  26 t-inv F
  0.333333  0.000000  0.333333    0.00925926  27 t-inv F
  0.500000  0.000000  0.333333    0.00925926  28 t-inv F
 -0.333333  0.000000  0.333333    0.00925926  29 t-inv F
 -0.166667  0.000000  0.333333    0.00925926  30 t-inv F
  0.000000  0.166667  0.333333    0.00925926  31 t-inv F
  0.166667  0.166667  0.333333    0.00925926  32 t-inv F
  0.333333  0.166667  0.333333    0.00925926  33 t-inv F
  0.500000  0.166667  0.333333    0.00925926  34 t-inv F
 -0.333333  0.166667  0.333333    0.00925926  35 t-inv F
 -0.166667  0.166667  0.333333    0.00925926  36 t-inv F
  0.000000  0.333333  0.333333    0.00925926  37 t-inv F
  0.166667  0.333333  0.333333    0.00925926  38 t-inv F
  0.333333  0.333333  0.333333    0.00925926  39 t-inv F
  0.500000  0.333333  0.333333    0.00925926  40 t-inv F
 -0.333333  0.333333  0.333333    0.00925926  41 t-inv F
 -0.166667  0.333333  0.333333    0.00925926  42 t-inv F
  0.000000  0.500000  0.333333    0.00925926  43 t-inv F
  0.166667  0.500000  0.333333    0.00925926  44 t-inv F
  0.333333  0.500000  0.333333    0.00925926  45 t-inv F
  0.500000  0.500000  0.333333    0.00925926  46 t-inv F
 -0.333333  0.500000  0.333333    0.00925926  47 t-inv F
 -0.166667  0.500000  0.333333    0.00925926  48 t-inv F
  0.000000 -0.333333  0.333333    0.00925926  49 t-inv F
  0.166667 -0.333333  0.333333    0.00925926  50 t-inv F
  0.333333 -0.333333  0.333333    0.00925926  51 t-inv F
  0.500000 -0.333333  0.333333    0.00925926  52 t-inv F
 -0.333333 -0.333333  0.333333    0.00925926  53 t-inv F
 -0.166667 -0.333333  0.333333    0.00925926  54 t-inv F
  0.000000 -0.166667  0.333333    0.00925926  55 t-inv F
  0.166667 -0.166667  0.333333    0.00925926  56 t-inv F
  0.333333 -0.166667  0.333333    0.00925926  57 t-inv F
  0.500000 -0.166667  0.333333    0.00925926  58 t-inv F
 -0.333333 -0.166667  0.333333    0.00925926  59 t-inv F
 -0.166667 -0.166667  0.333333    0.00925926  60 t-inv F
 -0.166667  0.000000 -0.000000    0.00925926   2 t-inv F
 -0.333333  0.000000 -0.000000    0.00925926   3 t-inv F
 -0.166667  0.166667 -0.000000    0.00925926   6 t-inv F
 -0.333333  0.166667 -0.000000    0.00925926   7 t-inv F
 -0.166667  0.333333 -0.000000    0.00925926  10 t-inv F
 -0.333333  0.333333 -0.000000    0.00925926  11 t-inv F
 -0.166667  0.500000 -0.000000    0.00925926  14 t-inv F
 -0.333333  0.500000 -0.000000    0.00925926  15 t-inv F
 -0.166667 -0.333333 -0.000000    0.00925926  18 t-inv F
 -0.333333 -0.333333 -0.000000    0.00925926  19 t-inv F
 -0.166667 -0.166667 -0.000000    0.00925926  22 t-inv F
 -0.333333 -0.166667 -0.000000    0.00925926  23 t-inv F
 -0.000000  0.000000 -0.333333    0.00925926  25 t-inv F
 -0.166667  0.000000 -0.333333    0.00925926  26 t-inv F
 -0.333333  0.000000 -0.333333    0.00925926  27 t-inv F
 -0.500000  0.000000 -0.333333    0.00925926  28 t-inv F
  0.333333  0.000000 -0.333333    0.00925926  29 t-inv F
  0.166667  0.000000 -0.333333    0.00925926  30 t-inv F
 -0.000000  0.166667 -0.333333    0.00925926  31 t-inv F
 -0.166667  0.166667 -0.333333    0.00925926  32 t-inv F
 -0.333333  0.166667 -0.333333    0.00925926  33 t-inv F
 -0.500000  0.166667 -0.333333    0.00925926  34 t-inv F
  0.333333  0.166667 -0.333333    0.00925926  35 t-inv F
  0.166667  0.166667 -0.333333    0.00925926  36 t-inv F
 -0.000000  0.333333 -0.333333    0.00925926  37 t-inv F
 -0.166667  0.333333 -0.333333    0.00925926  38 t-inv F
 -0.333333  0.333333 -0.333333    0.00925926  39 t-inv F
 -0.500000  0.333333 -0.333333    0.00925926  40 t-inv F
  0.333333  0.333333 -0.333333    0.00925926  41 t-inv F
  0.166667  0.333333 -0.333333    0.00925926  42 t-inv F
 -0.000000  0.500000 -0.333333    0.00925926  43 t-inv F
 -0.166667  0.500000 -0.333333    0.00925926  44 t-inv F
 -0.333333  0.500000 -0.333333    0.00925926  45 t-inv F
 -0.500000  0.500000 -0.333333    0.00925926  46 t-inv F
  0.333333  0.500000 -0.333333    0.00925926  47 t-inv F
  0.166667  0.500000 -0.333333    0.00925926  48 t-inv F
 -0.000000 -0.333333 -0.333333    0.00925926  49 t-inv F
 -0.166667 -0.333333 -0.333333    0.00925926  50 t-inv F
 -0.333333 -0.333333 -0.333333    0.00925926  51 t-inv F
 -0.500000 -0.333333 -0.333333    0.00925926  52 t-inv F
  0.333333 -0.333333 -0.333333    0.00925926  53 t-inv F
  0.166667 -0.333333 -0.333333    0.00925926  54 t-inv F
 -0.000000 -0.166667 -0.333333    0.00925926  55 t-inv F
 -0.166667 -0.166667 -0.333333    0.00925926  56 t-inv F
 -0.333333 -0.166667 -0.333333    0.00925926  57 t-inv F
 -0.500000 -0.166667 -0.333333    0.00925926  58 t-inv F
  0.333333 -0.166667 -0.333333    0.00925926  59 t-inv F
  0.166667 -0.166667 -0.333333    0.00925926  60 t-inv F


--------------------------------------------------------------------------------------------------------




 Dimension of arrays:
   k-points           NKPTS =     60   k-points in BZ     NKDIM =     60   number of bands    NBANDS=    256
   number of dos      NEDOS =    301   number of ions     NIONS =     16
   non local maximal  LDIM  =      6   non local SUM 2l+1 LMDIM =     18
   total plane-waves  NPLWV = 207360
   max r-space proj   IRMAX =      1   max aug-charges    IRDMAX=  23158
   dimension x,y,z NGX =    48 NGY =   48 NGZ =   90
   dimension x,y,z NGXF=    96 NGYF=   96 NGZF=  180
   support grid    NGXF=    96 NGYF=   96 NGZF=  180
   ions per type =               8   4   4
   NGX,Y,Z   is equivalent  to a cutoff of  15.17, 15.12, 14.38 a.u.
   NGXF,Y,Z  is equivalent  to a cutoff of  30.35, 30.24, 28.75 a.u.

 SYSTEM =  CuFeS2                                  
 POSCAR =  Fe4 Cu4 S8                              

 Startparameter for this run:
   NWRITE =      2    write-flag & timer
   PREC   = accura    normal or accurate (medium, high low for compatibility)
   ISTART =      1    job   : 0-new  1-cont  2-samecut
   ICHARG =      1    charge: 1-file 2-atom 10-const
   ISPIN  =      1    spin polarized calculation?
   LNONCOLLINEAR =      T non collinear calculations
   LSORBIT =      T    spin-orbit coupling
   INIWAV =      1    electr: 0-lowe 1-rand  2-diag
   LASPH  =      T    aspherical Exc in radial PAW
   METAGGA=      F    non-selfconsistent MetaGGA calc.

 Electronic Relaxation 1
   ENCUT  =  700.0 eV  51.45 Ry    7.17 a.u.  11.34 11.39 22.45*2*pi/ulx,y,z
   ENINI  =  700.0     initial cutoff
   ENAUG  =  758.2 eV  augmentation charge cutoff
   NELM   =    200;   NELMIN=  2; NELMDL=  0     # of ELM steps 
   EDIFF  = 0.1E-07   stopping-criterion for ELM
   LREAL  =      F    real-space projection
   NLSPLINE    = F    spline interpolate recip. space projectors
   LCOMPAT=      F    compatible to vasp.4.4
   GGA_COMPAT  = T    GGA compatible to vasp.4.4-vasp.4.6
   LMAXPAW     = -100 max onsite density
   LMAXMIX     =    4 max onsite mixed and CHGCAR
   VOSKOWN=      0    Vosko Wilk Nusair interpolation
   ROPT   =    0.00000   0.00000   0.00000
 Ionic relaxation
   EDIFFG = -.1E-04   stopping-criterion for IOM
   NSW    =      0    number of steps for IOM
   NBLOCK =      1;   KBLOCK =      1    inner block; outer block 
   IBRION =     -1    ionic relax: 0-MD 1-quasi-New 2-CG
   NFREE  =      0    steps in history (QN), initial steepest desc. (CG)
   ISIF   =      2    stress and relaxation
   IWAVPR =     10    prediction:  0-non 1-charg 2-wave 3-comb
   ISYM   =      2    0-nonsym 1-usesym 2-fastsym
   LCORR  =      T    Harris-Foulkes like correction to forces

   POTIM  = 0.5000    time-step for ionic-motion
   TEIN   =    0.0    initial temperature
   TEBEG  =    0.0;   TEEND  =   0.0 temperature during run
   SMASS  =  -3.00    Nose mass-parameter (am)
   estimated Nose-frequenzy (Omega)   =  0.10E-29 period in steps =****** mass=  -0.632E-27a.u.
   SCALEE = 1.0000    scale energy and forces
   NPACO  =    256;   APACO  = 16.0  distance and # of slots for P.C.
   PSTRESS=    0.0 pullay stress

  Mass of Ions in am
   POMASS =  32.07 63.55 55.85
  Ionic Valenz
   ZVAL   =   6.00 17.00 14.00
  Atomic Wigner-Seitz radii
   RWIGS  =  -1.00 -1.00 -1.00
  virtual crystal weights 
   VCA    =   1.00  1.00  1.00
   NELECT =     172.0000    total number of electrons
   NUPDOWN=      -1.0000    fix difference up-down

 DOS related values:
   EMIN   =  10.00;   EMAX   =-10.00  energy-range for DOS
   EFERMI =   0.00
   ISMEAR =    -5;   SIGMA  =   0.03  broadening in eV -4-tet -1-fermi 0-gaus

 Electronic relaxation 2 (details)
   IALGO  =     38    algorithm
   LDIAG  =      T    sub-space diagonalisation (order eigenvalues)
   LSUBROT=      F    optimize rotation matrix (better conditioning)
   TURBO    =      0    0=normal 1=particle mesh
   IRESTART =      0    0=no restart 2=restart with 2 vectors
   NREBOOT  =      0    no. of reboots
   NMIN     =      0    reboot dimension
   EREF     =   0.00    reference energy to select bands
   IMIX   =      4    mixing-type and parameters
     AMIX     =   0.40;   BMIX     =  1.00
     AMIX_MAG =   1.60;   BMIX_MAG =  1.00
     AMIN     =   0.10
     WC   =   100.;   INIMIX=   1;  MIXPRE=   1;  MAXMIX= -45

 Intra band minimization:
   WEIMIN = 0.0000     energy-eigenvalue tresh-hold
   EBREAK =  0.98E-11  absolut break condition
   DEPER  =   0.30     relativ break condition  

   TIME   =   0.40     timestep for ELM

  volume/ion in A,a.u.               =      17.78       120.00
  Fermi-wavevector in a.u.,A,eV,Ry     =   1.384244  2.615842 26.070555  1.916132
  Thomas-Fermi vector in A             =   2.508766
 
 Write flags
   LWAVE        =      T    write WAVECAR
   LDOWNSAMPLE  =      F    k-point downsampling of WAVECAR
   LCHARG       =      T    write CHGCAR
   LVTOT        =      F    write LOCPOT, total local potential
   LVHAR        =      F    write LOCPOT, Hartree potential only
   LELF         =      F    write electronic localiz. function (ELF)
   LORBIT       =     11    0 simple, 1 ext, 2 COOP (PROOUT), +10 PAW based schemes


 Dipole corrections
   LMONO  =      F    monopole corrections only (constant potential shift)
   LDIPOL =      F    correct potential (dipole corrections)
   IDIPOL =      0    1-x, 2-y, 3-z, 4-all directions 
   EPSILON=  1.0000000 bulk dielectric constant

 LDA+U is selected, type is set to LDAUTYPE =  2
   angular momentum for each species LDAUL =     2    2    2
   U (eV)           for each species LDAUU =   0.0  0.1  4.7
   J (eV)           for each species LDAUJ =   0.0  0.0  0.0
 Exchange correlation treatment:
   GGA     =    PS    GGA type
   LEXCH   =    14    internal setting for exchange type
   VOSKOWN=      0    Vosko Wilk Nusair interpolation
   LHFCALC =     F    Hartree Fock is set to
   LHFONE  =     F    Hartree Fock one center treatment
   AEXX    =    0.0000 exact exchange contribution

 Linear response parameters
   LEPSILON=     F    determine dielectric tensor
   LRPA    =     F    only Hartree local field effects (RPA)
   LNABLA  =     F    use nabla operator in PAW spheres
   LVEL    =     F    velocity operator in full k-point grid
   LINTERFAST=   F  fast interpolation
   KINTER  =     0    interpolate to denser k-point grid
   CSHIFT  =0.1000    complex shift for real part using Kramers Kronig
   OMEGAMAX=  -1.0    maximum frequency
   DEG_THRESHOLD= 0.2000000E-02 threshold for treating states as degnerate
   RTIME   =   -0.100 relaxation time in fs
  (WPLASMAI=    0.000 imaginary part of plasma frequency in eV, 0.658/RTIME)
   DFIELD  = 0.0000000 0.0000000 0.0000000 field for delta impulse in time
 
 Orbital magnetization related:
   ORBITALMAG=     F  switch on orbital magnetization
   LCHIMAG   =     F  perturbation theory with respect to B field
   DQ        =  0.001000  dq finite difference perturbation B field
   LLRAUG    =     F  two centre corrections for induced B field

 PEAD related settings:
   LPEAD      =     T    switch on PEAD
   IPEAD      =     4    finite difference order for dpsi/dk
   LCALCPOL   =     T    calculate macroscopic polarization
   LCALCEPS   =     F    calculate dielectric tensor
   EFIELD_PEAD=    0.0000    0.0000    0.0000
   SKIP_EDOTP =     F
   LRPA       =     F
   SKIP_SCF   =     F


--------------------------------------------------------------------------------------------------------


 Static calculation
 charge density and potential will be updated during run
 non collinear spin polarized calculation
 Variant of blocked Davidson
 Davidson routine will perform the subspace rotation
 perform sub-space diagonalisation
    after iterative eigenvector-optimisation
 modified Broyden-mixing scheme, WC =      100.0
 initial mixing is a Kerker type mixing with AMIX =  0.4000 and BMIX =      1.0000
 Hartree-type preconditioning will be used
 using additional bands          170
 reciprocal scheme for non local part
 use partial core corrections
 calculate Harris-corrections to forces 
   (improved forces if not selfconsistent)
 use gradient corrections 
 use of overlap-Matrix (Vanderbilt PP)
 Fermi weights with tetrahedron method with Bloechl corrections


--------------------------------------------------------------------------------------------------------


  energy-cutoff  :      700.00
  volume of cell :      284.52
      direct lattice vectors                 reciprocal lattice vectors
     5.238774000  0.000000000  0.458333000     0.192356704  0.000000000 -0.016829028
     0.000000000  5.278332361  0.000000000     0.000000000  0.189453777  0.000000000
     0.907146000  0.000000000 10.368728000    -0.008502820  0.000000000  0.097187746

  length of vectors
     5.258785236  5.278332361 10.408334843     0.193091475  0.189453777  0.097558986


 
 old parameters found on file WAVECAR:
  energy-cutoff  :      700.00
  volume of cell :      284.51
      direct lattice vectors                 reciprocal lattice vectors
     5.238774000  0.000000000  0.458333000     0.192356704  0.000000000 -0.016829028
     0.000000000  5.278163575  0.000000000     0.000000000  0.189459835  0.000000000
     0.907146000  0.000000000 10.368728000    -0.008502820  0.000000000  0.097187746

  length of vectors

 
 k-points in units of 2pi/SCALE and weight: Automatic mesh                          
   0.00000000  0.00000000  0.00000000       0.009
   0.03205945  0.00000000 -0.00280484       0.019
   0.06411890  0.00000000 -0.00560968       0.019
   0.09617835  0.00000000 -0.00841451       0.009
   0.00000000  0.03157563  0.00000000       0.009
   0.03205945  0.03157563 -0.00280484       0.019
   0.06411890  0.03157563 -0.00560968       0.019
   0.09617835  0.03157563 -0.00841451       0.009
   0.00000000  0.06315126  0.00000000       0.009
   0.03205945  0.06315126 -0.00280484       0.019
   0.06411890  0.06315126 -0.00560968       0.019
   0.09617835  0.06315126 -0.00841451       0.009
   0.00000000  0.09472689  0.00000000       0.009
   0.03205945  0.09472689 -0.00280484       0.019
   0.06411890  0.09472689 -0.00560968       0.019
   0.09617835  0.09472689 -0.00841451       0.009
   0.00000000 -0.06315126  0.00000000       0.009
   0.03205945 -0.06315126 -0.00280484       0.019
   0.06411890 -0.06315126 -0.00560968       0.019
   0.09617835 -0.06315126 -0.00841451       0.009
   0.00000000 -0.03157563  0.00000000       0.009
   0.03205945 -0.03157563 -0.00280484       0.019
   0.06411890 -0.03157563 -0.00560968       0.019
   0.09617835 -0.03157563 -0.00841451       0.009
  -0.00283427  0.00000000  0.03239592       0.019
   0.02922518  0.00000000  0.02959108       0.019
   0.06128463  0.00000000  0.02678624       0.019
   0.09334408  0.00000000  0.02398140       0.019
  -0.06695317  0.00000000  0.03800559       0.019
  -0.03489372  0.00000000  0.03520075       0.019
  -0.00283427  0.03157563  0.03239592       0.019
   0.02922518  0.03157563  0.02959108       0.019
   0.06128463  0.03157563  0.02678624       0.019
   0.09334408  0.03157563  0.02398140       0.019
  -0.06695317  0.03157563  0.03800559       0.019
  -0.03489372  0.03157563  0.03520075       0.019
  -0.00283427  0.06315126  0.03239592       0.019
   0.02922518  0.06315126  0.02959108       0.019
   0.06128463  0.06315126  0.02678624       0.019
   0.09334408  0.06315126  0.02398140       0.019
  -0.06695317  0.06315126  0.03800559       0.019
  -0.03489372  0.06315126  0.03520075       0.019
  -0.00283427  0.09472689  0.03239592       0.019
   0.02922518  0.09472689  0.02959108       0.019
   0.06128463  0.09472689  0.02678624       0.019
   0.09334408  0.09472689  0.02398140       0.019
  -0.06695317  0.09472689  0.03800559       0.019
  -0.03489372  0.09472689  0.03520075       0.019
  -0.00283427 -0.06315126  0.03239592       0.019
   0.02922518 -0.06315126  0.02959108       0.019
   0.06128463 -0.06315126  0.02678624       0.019
   0.09334408 -0.06315126  0.02398140       0.019
  -0.06695317 -0.06315126  0.03800559       0.019
  -0.03489372 -0.06315126  0.03520075       0.019
  -0.00283427 -0.03157563  0.03239592       0.019
   0.02922518 -0.03157563  0.02959108       0.019
   0.06128463 -0.03157563  0.02678624       0.019
   0.09334408 -0.03157563  0.02398140       0.019
  -0.06695317 -0.03157563  0.03800559       0.019
  -0.03489372 -0.03157563  0.03520075       0.019
 
 k-points in reciprocal lattice and weights: Automatic mesh                          
   0.00000000  0.00000000  0.00000000       0.009
   0.16666667  0.00000000  0.00000000       0.019
   0.33333333  0.00000000  0.00000000       0.019
   0.50000000  0.00000000  0.00000000       0.009
   0.00000000  0.16666667  0.00000000       0.009
   0.16666667  0.16666667  0.00000000       0.019
   0.33333333  0.16666667  0.00000000       0.019
   0.50000000  0.16666667  0.00000000       0.009
   0.00000000  0.33333333  0.00000000       0.009
   0.16666667  0.33333333  0.00000000       0.019
   0.33333333  0.33333333  0.00000000       0.019
   0.50000000  0.33333333  0.00000000       0.009
   0.00000000  0.50000000  0.00000000       0.009
   0.16666667  0.50000000  0.00000000       0.019
   0.33333333  0.50000000  0.00000000       0.019
   0.50000000  0.50000000  0.00000000       0.009
   0.00000000 -0.33333333  0.00000000       0.009
   0.16666667 -0.33333333  0.00000000       0.019
   0.33333333 -0.33333333  0.00000000       0.019
   0.50000000 -0.33333333  0.00000000       0.009
   0.00000000 -0.16666667  0.00000000       0.009
   0.16666667 -0.16666667  0.00000000       0.019
   0.33333333 -0.16666667  0.00000000       0.019
   0.50000000 -0.16666667  0.00000000       0.009
   0.00000000  0.00000000  0.33333333       0.019
   0.16666667  0.00000000  0.33333333       0.019
   0.33333333  0.00000000  0.33333333       0.019
   0.50000000  0.00000000  0.33333333       0.019
  -0.33333333  0.00000000  0.33333333       0.019
  -0.16666667  0.00000000  0.33333333       0.019
   0.00000000  0.16666667  0.33333333       0.019
   0.16666667  0.16666667  0.33333333       0.019
   0.33333333  0.16666667  0.33333333       0.019
   0.50000000  0.16666667  0.33333333       0.019
  -0.33333333  0.16666667  0.33333333       0.019
  -0.16666667  0.16666667  0.33333333       0.019
   0.00000000  0.33333333  0.33333333       0.019
   0.16666667  0.33333333  0.33333333       0.019
   0.33333333  0.33333333  0.33333333       0.019
   0.50000000  0.33333333  0.33333333       0.019
  -0.33333333  0.33333333  0.33333333       0.019
  -0.16666667  0.33333333  0.33333333       0.019
   0.00000000  0.50000000  0.33333333       0.019
   0.16666667  0.50000000  0.33333333       0.019
   0.33333333  0.50000000  0.33333333       0.019
   0.50000000  0.50000000  0.33333333       0.019
  -0.33333333  0.50000000  0.33333333       0.019
  -0.16666667  0.50000000  0.33333333       0.019
   0.00000000 -0.33333333  0.33333333       0.019
   0.16666667 -0.33333333  0.33333333       0.019
   0.33333333 -0.33333333  0.33333333       0.019
   0.50000000 -0.33333333  0.33333333       0.019
  -0.33333333 -0.33333333  0.33333333       0.019
  -0.16666667 -0.33333333  0.33333333       0.019
   0.00000000 -0.16666667  0.33333333       0.019
   0.16666667 -0.16666667  0.33333333       0.019
   0.33333333 -0.16666667  0.33333333       0.019
   0.50000000 -0.16666667  0.33333333       0.019
  -0.33333333 -0.16666667  0.33333333       0.019
  -0.16666667 -0.16666667  0.33333333       0.019
 
 position of ions in fractional coordinates (direct lattice) 
   0.25413773  0.22701680  0.12676579
   0.74586227  0.72701680  0.12323421
   0.25000000  0.73647807  0.87500000
   0.75000000  0.23792094  0.87500000
   0.24586227  0.22701680  0.62323421
   0.75413773  0.72701680  0.62676579
   0.75000000  0.23647807  0.37500000
   0.25000000  0.73792094  0.37500000
   0.98994395  0.01767934  0.50013420
   0.51005605  0.01767934  0.24986580
   0.48994395  0.51767934  0.00013420
   0.01005605  0.51767934  0.74986580
   0.99382888  0.01810436  0.00224100
   0.50617112  0.01810436  0.74775900
   0.49382888  0.51810436  0.50224100
   0.00617112  0.51810436  0.24775900
 
 position of ions in cartesian coordinates  (Angst):
   1.44636519  1.19827014  1.43087973
   4.01919531  3.83743632  1.61963527
   2.10344625  3.88737601  9.18722025
   4.72283325  1.25582581  9.41638675
   1.85338131  1.19827014  6.57483277
   4.51932519  3.83743632  6.84441023
   4.26926025  1.24820983  4.23202275
   1.64987325  3.89499199  4.00285625
   5.63978736  0.09331741  5.63947945
   2.89873314  0.09331741  2.82456605
   2.56682736  2.73248359  0.22594895
   0.73291914  2.73248359  7.77976355
   5.20847782  0.09556082  0.47874084
   3.33004268  0.09556082  7.98530466
   3.04266382  2.73472700  5.43393834
   0.25708268  2.73472700  2.57177416
 
 Euler angles ALPHA=     0.0000000  BETA=     0.0000000

 transformation matrix from SAXIS to cartesian coordinates
 ---------------------------------------------------------
     1.0000000 m_x     0.0000000 m_y     0.0000000 m_z
     0.0000000 m_x     1.0000000 m_y     0.0000000 m_z
     0.0000000 m_x     0.0000000 m_y     1.0000000 m_z

 transformation matrix from cartesian coordinates to SAXIS
 ---------------------------------------------------------
     1.0000000 m_x     0.0000000 m_y     0.0000000 m_z
     0.0000000 m_x     1.0000000 m_y     0.0000000 m_z
     0.0000000 m_x     0.0000000 m_y     1.0000000 m_z




--------------------------------------------------------------------------------------------------------


 k-point  1 :   0.0000 0.0000 0.0000  plane waves:   23894
 k-point  2 :   0.1667 0.0000 0.0000  plane waves:   23948
 k-point  3 :   0.3333 0.0000 0.0000  plane waves:   23938
 k-point  4 :   0.5000 0.0000 0.0000  plane waves:   23956
 k-point  5 :   0.0000 0.1667 0.0000  plane waves:   23974
 k-point  6 :   0.1667 0.1667 0.0000  plane waves:   23954
 k-point  7 :   0.3333 0.1667 0.0000  plane waves:   23944
 k-point  8 :   0.5000 0.1667 0.0000  plane waves:   23976
 k-point  9 :   0.0000 0.3333 0.0000  plane waves:   23950
 k-point 10 :   0.1667 0.3333 0.0000  plane waves:   23934
 k-point 11 :   0.3333 0.3333 0.0000  plane waves:   23922
 k-point 12 :   0.5000 0.3333 0.0000  plane waves:   23868
 k-point 13 :   0.0000 0.5000 0.0000  plane waves:   23980
 k-point 14 :   0.1667 0.5000 0.0000  plane waves:   23944
 k-point 15 :   0.3333 0.5000 0.0000  plane waves:   23860
 k-point 16 :   0.5000 0.5000 0.0000  plane waves:   23840
 k-point 17 :   0.0000-0.3333 0.0000  plane waves:   23950
 k-point 18 :   0.1667-0.3333 0.0000  plane waves:   23934
 k-point 19 :   0.3333-0.3333 0.0000  plane waves:   23922
 k-point 20 :   0.5000-0.3333 0.0000  plane waves:   23868
 k-point 21 :   0.0000-0.1667 0.0000  plane waves:   23974
 k-point 22 :   0.1667-0.1667 0.0000  plane waves:   23954
 k-point 23 :   0.3333-0.1667 0.0000  plane waves:   23944
 k-point 24 :   0.5000-0.1667 0.0000  plane waves:   23976
 k-point 25 :   0.0000 0.0000 0.3333  plane waves:   23940
 k-point 26 :   0.1667 0.0000 0.3333  plane waves:   23948
 k-point 27 :   0.3333 0.0000 0.3333  plane waves:   23954
 k-point 28 :   0.5000 0.0000 0.3333  plane waves:   23982
 k-point 29 :  -0.3333 0.0000 0.3333  plane waves:   23914
 k-point 30 :  -0.1667 0.0000 0.3333  plane waves:   23968
 k-point 31 :   0.0000 0.1667 0.3333  plane waves:   23956
 k-point 32 :   0.1667 0.1667 0.3333  plane waves:   23914
 k-point 33 :   0.3333 0.1667 0.3333  plane waves:   23940
 k-point 34 :   0.5000 0.1667 0.3333  plane waves:   23930
 k-point 35 :  -0.3333 0.1667 0.3333  plane waves:   23912
 k-point 36 :  -0.1667 0.1667 0.3333  plane waves:   23930
 k-point 37 :   0.0000 0.3333 0.3333  plane waves:   23922
 k-point 38 :   0.1667 0.3333 0.3333  plane waves:   23924
 k-point 39 :   0.3333 0.3333 0.3333  plane waves:   23906
 k-point 40 :   0.5000 0.3333 0.3333  plane waves:   23914
 k-point 41 :  -0.3333 0.3333 0.3333  plane waves:   23910
 k-point 42 :  -0.1667 0.3333 0.3333  plane waves:   23944
 k-point 43 :   0.0000 0.5000 0.3333  plane waves:   23948
 k-point 44 :   0.1667 0.5000 0.3333  plane waves:   23948
 k-point 45 :   0.3333 0.5000 0.3333  plane waves:   23896
 k-point 46 :   0.5000 0.5000 0.3333  plane waves:   23868
 k-point 47 :  -0.3333 0.5000 0.3333  plane waves:   23872
 k-point 48 :  -0.1667 0.5000 0.3333  plane waves:   23912
 k-point 49 :   0.0000-0.3333 0.3333  plane waves:   23922
 k-point 50 :   0.1667-0.3333 0.3333  plane waves:   23924
 k-point 51 :   0.3333-0.3333 0.3333  plane waves:   23906
 k-point 52 :   0.5000-0.3333 0.3333  plane waves:   23914
 k-point 53 :  -0.3333-0.3333 0.3333  plane waves:   23910
 k-point 54 :  -0.1667-0.3333 0.3333  plane waves:   23944
 k-point 55 :   0.0000-0.1667 0.3333  plane waves:   23956
 k-point 56 :   0.1667-0.1667 0.3333  plane waves:   23914
 k-point 57 :   0.3333-0.1667 0.3333  plane waves:   23940
 k-point 58 :   0.5000-0.1667 0.3333  plane waves:   23930
 k-point 59 :  -0.3333-0.1667 0.3333  plane waves:   23912
 k-point 60 :  -0.1667-0.1667 0.3333  plane waves:   23930

 maximum and minimum number of plane-waves per node :     23982    23840

 maximum number of plane-waves:     23982
 maximum index in each direction: 
   IXMAX=   11   IYMAX=   11   IZMAX=   22
   IXMIN=  -11   IYMIN=  -11   IZMIN=  -22


 serial   3D FFT for wavefunctions
 parallel 3D FFT for charge:
    minimum data exchange during FFTs selected (reduces bandwidth)


 total amount of memory used by VASP MPI-rank0   403236. kBytes
=======================================================================

   base      :      30000. kBytes
   nonl-proj :     314949. kBytes
   fftplans  :       2735. kBytes
   grid      :      30965. kBytes
   one-center:        995. kBytes
   wavefun   :      23592. kBytes
 
     INWAV:  cpu time   15.5138: real time   15.6672
 Broyden mixing: mesh for mixing (old mesh)
   NGX = 23   NGY = 23   NGZ = 45
  (NGX  = 96   NGY  = 96   NGZ  =180)
  gives a total of  23805 points

 initial charge density was supplied:
 number of electron     172.0000035 magnetization       0.0000000      0.0000002     -0.0000000
 keeping initial charge density in first step


--------------------------------------------------------------------------------------------------------


 Maximum index for augmentation-charges          888 (set IRDMAX)


--------------------------------------------------------------------------------------------------------


 First call to EWALD:  gamma=   0.269
 Maximum number of real-space cells 3x 3x 2
 Maximum number of reciprocal cells 2x 2x 4

    FEWALD:  cpu time    0.0015: real time    0.0015


--------------------------------------- Iteration      1(   1)  ---------------------------------------


    POTLOK:  cpu time    0.2509: real time    0.2986
    SETDIJ:  cpu time    0.5900: real time    0.5920
     EDDAV:  cpu time   78.7694: real time   79.2431
 BZINTS: Fermi energy:  5.318913;172.000000 electrons
         Band energy:***********;  BLOECHL correction:  0.000000
       DOS:  cpu time    0.0401: real time    0.0402
    CHARGE:  cpu time    1.5751: real time    1.5874
    MIXING:  cpu time    0.0032: real time    0.0033
    --------------------------------------------
      LOOP:  cpu time   81.2286: real time   81.7646

 eigenvalue-minimisations  : 30720
 total energy-change (2. order) :-0.8144869E+02  (-0.1937778E+00)
 number of electron     172.0000035 magnetization       0.0000000      0.0008089     -0.0000000
 augmentation part       70.5773084 magnetization       0.0000000     -0.0010103     -0.0000000

 Broyden mixing:
  rms(total) = 0.78846E-01    rms(broyden)= 0.78846E-01
  rms(prec ) = 0.78907E-01
  weight for this iteration     100.00

 Free energy of the ion-electron system (eV)
  ---------------------------------------------------
  alpha Z        PSCENC =       595.55073201
  Ewald energy   TEWEN  =    -15701.16556788
  -Hartree energ DENC   =    -10688.74587962
  -exchange      EXHF   =         0.00000000
  -V(xc)+E(xc)   XCENC  =       821.59585125
  PAW double counting   =     27995.53670915   -28917.67444225
  entropy T*S    EENTRO =         0.00000000
  eigenvalues    EBANDS =     -2691.56237169
  atomic energy  EATOM  =     28505.01627691
  Solvation  Ediel_sol  =         0.00000000
  ---------------------------------------------------
  free energy    TOTEN  =       -81.44869213 eV

  energy without entropy =      -81.44869213  energy(sigma->0) =      -81.44869213


--------------------------------------------------------------------------------------------------------




--------------------------------------- Iteration      1(   2)  ---------------------------------------


    POTLOK:  cpu time    0.1418: real time    0.1463
    SETDIJ:  cpu time    0.5898: real time    0.5917
     EDDAV:  cpu time   80.3916: real time   80.8110
 BZINTS: Fermi energy:  5.116910;172.000000 electrons
         Band energy:***********;  BLOECHL correction:  0.000000
       DOS:  cpu time    0.0405: real time    0.0407
    CHARGE:  cpu time    1.4668: real time    1.4783
    MIXING:  cpu time    0.0025: real time    0.0136
    --------------------------------------------
      LOOP:  cpu time   82.6330: real time   83.0817

 eigenvalue-minimisations  : 30720
 total energy-change (2. order) :-0.9068232E-02  (-0.6607779E-02)
 number of electron     172.0000035 magnetization       0.0000000      0.0011949     -0.0000000
 augmentation part       70.5789293 magnetization       0.0000000     -0.0018505     -0.0000000

 Broyden mixing:
  rms(total) = 0.47130E-01    rms(broyden)= 0.47130E-01
  rms(prec ) = 0.47411E-01
  weight for this iteration     100.00

 eigenvalues of (default mixing * dielectric matrix)
  average eigenvalue GAMMA=   0.6356
  0.6356

 Free energy of the ion-electron system (eV)
  ---------------------------------------------------
  alpha Z        PSCENC =       595.55073201
  Ewald energy   TEWEN  =    -15701.16556788
  -Hartree energ DENC   =    -10688.44170051
  -exchange      EXHF   =         0.00000000
  -V(xc)+E(xc)   XCENC  =       821.58172947
  PAW double counting   =     27996.41708601   -28918.52768087
  entropy T*S    EENTRO =         0.00000000
  eigenvalues    EBANDS =     -2691.88863550
  atomic energy  EATOM  =     28505.01627691
  Solvation  Ediel_sol  =         0.00000000
  ---------------------------------------------------
  free energy    TOTEN  =       -81.45776036 eV

  energy without entropy =      -81.45776036  energy(sigma->0) =      -81.45776036


--------------------------------------------------------------------------------------------------------




--------------------------------------- Iteration      1(   3)  ---------------------------------------


    POTLOK:  cpu time    0.1325: real time    0.1334
    SETDIJ:  cpu time    0.5886: real time    0.5904
     EDDAV:  cpu time  341.2307: real time  342.8357
 BZINTS: Fermi energy:  5.092002;172.000000 electrons
         Band energy:***********;  BLOECHL correction:  0.000000
       DOS:  cpu time    0.0338: real time    0.0339
    CHARGE:  cpu time    1.4700: real time    1.4822
    MIXING:  cpu time    0.0020: real time    0.0020
    --------------------------------------------
      LOOP:  cpu time  343.4577: real time  345.0777

 eigenvalue-minimisations  : 58624
 total energy-change (2. order) :-0.1239569E-02  (-0.1748886E-02)
 number of electron     172.0000035 magnetization       0.0000000      0.0004900     -0.0000000
 augmentation part       70.5793182 magnetization       0.0000000      0.0009049     -0.0000000

 Broyden mixing:
  rms(total) = 0.13893E-01    rms(broyden)= 0.13893E-01
  rms(prec ) = 0.14861E-01
  weight for this iteration     100.00

 eigenvalues of (default mixing * dielectric matrix)
  average eigenvalue GAMMA=   0.5942
  0.6680  0.5205

 Free energy of the ion-electron system (eV)
  ---------------------------------------------------
  alpha Z        PSCENC =       595.55073201
  Ewald energy   TEWEN  =    -15701.16556788
  -Hartree energ DENC   =    -10688.63932722
  -exchange      EXHF   =         0.00000000
  -V(xc)+E(xc)   XCENC  =       821.59048426
  PAW double counting   =     27997.20714878   -28919.34186299
  entropy T*S    EENTRO =         0.00000000
  eigenvalues    EBANDS =     -2691.67688380
  atomic energy  EATOM  =     28505.01627691
  Solvation  Ediel_sol  =         0.00000000
  ---------------------------------------------------
  free energy    TOTEN  =       -81.45899993 eV

  energy without entropy =      -81.45899993  energy(sigma->0) =      -81.45899993


--------------------------------------------------------------------------------------------------------




--------------------------------------- Iteration      1(   4)  ---------------------------------------


    POTLOK:  cpu time    0.1285: real time    0.1327
    SETDIJ:  cpu time    0.5882: real time    0.5899
     EDDAV:  cpu time   85.5702: real time   86.0163
 BZINTS: Fermi energy:  5.273975;172.000000 electrons
         Band energy:***********;  BLOECHL correction:  0.000000
       DOS:  cpu time    0.0401: real time    0.0402
    CHARGE:  cpu time    1.4734: real time    1.4854
    MIXING:  cpu time    0.0020: real time    0.0020
    --------------------------------------------
      LOOP:  cpu time   87.8023: real time   88.2664

 eigenvalue-minimisations  : 31232
 total energy-change (2. order) :-0.1134784E-03  (-0.2903420E-02)
 number of electron     172.0000035 magnetization       0.0000000     -0.0001624      0.0000000
 augmentation part       70.5785832 magnetization       0.0000000     -0.0026915      0.0000000

 Broyden mixing:
  rms(total) = 0.14312E-01    rms(broyden)= 0.14312E-01
  rms(prec ) = 0.14830E-01
  weight for this iteration     100.00

 eigenvalues of (default mixing * dielectric matrix)
  average eigenvalue GAMMA=   0.7540
  1.3552  0.6264  0.2805

 Free energy of the ion-electron system (eV)
  ---------------------------------------------------
  alpha Z        PSCENC =       595.55073201
  Ewald energy   TEWEN  =    -15701.16556788
  -Hartree energ DENC   =    -10688.48029558
  -exchange      EXHF   =         0.00000000
  -V(xc)+E(xc)   XCENC  =       821.58029865
  PAW double counting   =     27997.70578190   -28919.84448645
  entropy T*S    EENTRO =         0.00000000
  eigenvalues    EBANDS =     -2691.82185296
  atomic energy  EATOM  =     28505.01627691
  Solvation  Ediel_sol  =         0.00000000
  ---------------------------------------------------
  free energy    TOTEN  =       -81.45911341 eV

  energy without entropy =      -81.45911341  energy(sigma->0) =      -81.45911341


--------------------------------------------------------------------------------------------------------




--------------------------------------- Iteration      1(   5)  ---------------------------------------


    POTLOK:  cpu time    0.1278: real time    0.1315
    SETDIJ:  cpu time    0.5887: real time    0.5905
     EDDAV:  cpu time  354.4597: real time  356.1115
 BZINTS: Fermi energy:  5.255413;172.000000 electrons
         Band energy:***********;  BLOECHL correction:  0.000000
       DOS:  cpu time    0.0401: real time    0.0402
 


 total charge     
 
# of ion       s       p       d       tot
------------------------------------------
    1        1.318   2.398   0.000   3.716
    2        1.318   2.398   0.000   3.716
    3        1.320   2.388   0.000   3.709
    4        1.314   2.407   0.000   3.721
    5        1.318   2.398   0.000   3.716
    6        1.318   2.398   0.000   3.716
    7        1.320   2.388   0.000   3.709
    8        1.314   2.407   0.000   3.721
    9        0.256   6.199   8.917  15.372
   10        0.256   6.199   8.917  15.372
   11        0.256   6.199   8.917  15.372
   12        0.256   6.199   8.917  15.372
   13        0.342   6.341   5.832  12.515
   14        0.342   6.341   5.832  12.515
   15        0.342   6.341   5.832  12.515
   16        0.342   6.341   5.832  12.515
--------------------------------------------------
tot         12.931  69.340  58.999 141.270
 


 magnetization (x)
 
# of ion       s       p       d       tot
------------------------------------------
    1       -0.000  -0.000   0.000  -0.000
    2        0.000   0.000   0.000   0.000
    3       -0.000  -0.000   0.000  -0.000
    4       -0.000  -0.000   0.000  -0.000
    5        0.000   0.000   0.000   0.000
    6       -0.000  -0.000   0.000  -0.000
    7       -0.000  -0.000   0.000  -0.000
    8       -0.000  -0.000   0.000  -0.000
    9       -0.000  -0.000  -0.000  -0.000
   10        0.000   0.000  -0.000  -0.000
   11       -0.000  -0.000  -0.000  -0.000
   12        0.000   0.000  -0.000  -0.000
   13       -0.000  -0.000   0.001   0.001
   14        0.000   0.000  -0.001  -0.001
   15       -0.000  -0.000   0.001   0.001
   16        0.000   0.000  -0.001  -0.001
--------------------------------------------------
tot         -0.000  -0.000  -0.000  -0.001
 


 magnetization (y)
 
# of ion       s       p       d       tot
------------------------------------------
    1        0.000  -0.000   0.000  -0.000
    2        0.000  -0.000   0.000  -0.000
    3       -0.000   0.000   0.000   0.000
    4        0.000   0.000   0.000   0.000
    5        0.000  -0.000   0.000  -0.000
    6        0.000  -0.000   0.000  -0.000
    7       -0.000   0.000   0.000   0.000
    8        0.000   0.000   0.000   0.000
    9       -0.000   0.000   0.000   0.000
   10       -0.000   0.000   0.000   0.000
   11       -0.000   0.000   0.000   0.000
   12       -0.000   0.000   0.000   0.000
   13        0.000   0.000  -0.001  -0.001
   14        0.000   0.000  -0.001  -0.001
   15        0.000   0.000  -0.001  -0.001
   16        0.000   0.000  -0.001  -0.001
--------------------------------------------------
tot          0.000   0.001  -0.004  -0.002
 


 magnetization (z)
 
# of ion       s       p       d       tot
------------------------------------------
    1       -0.000  -0.047   0.000  -0.047
    2        0.000   0.047   0.000   0.047
    3        0.000   0.000   0.000   0.000
    4       -0.000  -0.000   0.000  -0.000
    5        0.000   0.047   0.000   0.047
    6       -0.000  -0.047   0.000  -0.047
    7        0.000   0.000   0.000   0.000
    8       -0.000  -0.000   0.000  -0.000
    9        0.001   0.002  -0.010  -0.008
   10       -0.001  -0.002   0.010   0.008
   11        0.001   0.002  -0.010  -0.008
   12       -0.001  -0.002   0.010   0.008
   13        0.021   0.054   3.648   3.723
   14       -0.021  -0.054  -3.648  -3.722
   15        0.021   0.054   3.648   3.723
   16       -0.021  -0.054  -3.648  -3.722
--------------------------------------------------
tot         -0.000  -0.000   0.001   0.000
 
    CHARGE:  cpu time    1.6564: real time    1.6689
    MIXING:  cpu time    0.0022: real time    0.0022
    --------------------------------------------
      LOOP:  cpu time  356.8749: real time  358.5448

 eigenvalue-minimisations  : 59136
 total energy-change (2. order) :-0.3036638E-03  (-0.2312220E-02)
 number of electron     172.0000035 magnetization       0.0000000     -0.0009018      0.0000000
 augmentation part       70.5792630 magnetization       0.0000000     -0.0004418      0.0000000

 Broyden mixing:
  rms(total) = 0.83160E-02    rms(broyden)= 0.83158E-02
  rms(prec ) = 0.86363E-02
  weight for this iteration     100.00

 eigenvalues of (default mixing * dielectric matrix)
  average eigenvalue GAMMA=   0.7159
  1.5854  0.6303  0.3658  0.2821

 Free energy of the ion-electron system (eV)
  ---------------------------------------------------
  alpha Z        PSCENC =       595.55073201
  Ewald energy   TEWEN  =    -15701.16556788
  -Hartree energ DENC   =    -10688.50384863
  -exchange      EXHF   =         0.00000000
  -V(xc)+E(xc)   XCENC  =       821.57789866
  PAW double counting   =     27998.85639543   -28921.00378833
  entropy T*S    EENTRO =         0.00000000
  eigenvalues    EBANDS =     -2691.78751524
  atomic energy  EATOM  =     28505.01627691
  Solvation  Ediel_sol  =         0.00000000
  ---------------------------------------------------
  free energy    TOTEN  =       -81.45941707 eV

  energy without entropy =      -81.45941707  energy(sigma->0) =      -81.45941707


--------------------------------------------------------------------------------------------------------




--------------------------------------- Iteration      1(   6)  ---------------------------------------


    POTLOK:  cpu time    0.1305: real time    0.1313
    SETDIJ:  cpu time    0.5887: real time    0.5904
     EDDAV:  cpu time   80.8069: real time   81.2360
 BZINTS: Fermi energy:  5.254883;172.000000 electrons
         Band energy:***********;  BLOECHL correction:  0.000000
       DOS:  cpu time    0.0400: real time    0.0402
    CHARGE:  cpu time    1.4723: real time    1.4843
    MIXING:  cpu time    0.0023: real time    0.0023
    --------------------------------------------
      LOOP:  cpu time   83.0408: real time   83.4845

 eigenvalue-minimisations  : 30720
 total energy-change (2. order) : 0.8229447E-04  (-0.1513096E-02)
 number of electron     172.0000035 magnetization       0.0000000     -0.0016758      0.0000000
 augmentation part       70.5790860 magnetization       0.0000000     -0.0025939      0.0000000

 Broyden mixing:
  rms(total) = 0.54341E-02    rms(broyden)= 0.54340E-02
  rms(prec ) = 0.54386E-02
  weight for this iteration     100.00

 eigenvalues of (default mixing * dielectric matrix)
  average eigenvalue GAMMA=   0.7435
  1.8145  0.7522  0.6181  0.3121  0.2205

 Free energy of the ion-electron system (eV)
  ---------------------------------------------------
  alpha Z        PSCENC =       595.55073201
  Ewald energy   TEWEN  =    -15701.16556788
  -Hartree energ DENC   =    -10688.56457400
  -exchange      EXHF   =         0.00000000
  -V(xc)+E(xc)   XCENC  =       821.58077033
  PAW double counting   =     27999.22629582   -28921.37785534
  entropy T*S    EENTRO =         0.00000000
  eigenvalues    EBANDS =     -2691.72541262
  atomic energy  EATOM  =     28505.01627691
  Solvation  Ediel_sol  =         0.00000000
  ---------------------------------------------------
  free energy    TOTEN  =       -81.45933478 eV

  energy without entropy =      -81.45933478  energy(sigma->0) =      -81.45933478


--------------------------------------------------------------------------------------------------------




--------------------------------------- Iteration      1(   7)  ---------------------------------------


    POTLOK:  cpu time    0.1307: real time    0.1328
    SETDIJ:  cpu time    0.5883: real time    0.5900
     EDDAV:  cpu time  233.0464: real time  234.1702
 BZINTS: Fermi energy:  5.253147;172.000000 electrons
         Band energy:***********;  BLOECHL correction:  0.000000
       DOS:  cpu time    0.0401: real time    0.0402
    CHARGE:  cpu time    1.4744: real time    1.4867
    MIXING:  cpu time    0.0024: real time    0.0024
    --------------------------------------------
      LOOP:  cpu time  235.2823: real time  236.4225

 eigenvalue-minimisations  : 46592
 total energy-change (2. order) :-0.1267750E-03  (-0.9280500E-03)
 number of electron     172.0000035 magnetization       0.0000000     -0.0025906      0.0000000
 augmentation part       70.5786593 magnetization       0.0000000     -0.0006175      0.0000000

 Broyden mixing:
  rms(total) = 0.37618E-02    rms(broyden)= 0.37617E-02
  rms(prec ) = 0.37792E-02
  weight for this iteration     100.00

 eigenvalues of (default mixing * dielectric matrix)
  average eigenvalue GAMMA=   0.7072
  1.9104  0.9016  0.6226  0.3237  0.2799  0.2049

 Free energy of the ion-electron system (eV)
  ---------------------------------------------------
  alpha Z        PSCENC =       595.55073201
  Ewald energy   TEWEN  =    -15701.16556788
  -Hartree energ DENC   =    -10688.58457275
  -exchange      EXHF   =         0.00000000
  -V(xc)+E(xc)   XCENC  =       821.58146666
  PAW double counting   =     27999.45460049   -28921.60754594
  entropy T*S    EENTRO =         0.00000000
  eigenvalues    EBANDS =     -2691.70485104
  atomic energy  EATOM  =     28505.01627691
  Solvation  Ediel_sol  =         0.00000000
  ---------------------------------------------------
  free energy    TOTEN  =       -81.45946155 eV

  energy without entropy =      -81.45946155  energy(sigma->0) =      -81.45946155


--------------------------------------------------------------------------------------------------------




--------------------------------------- Iteration      1(   8)  ---------------------------------------


    POTLOK:  cpu time    0.1330: real time    0.1339
    SETDIJ:  cpu time    0.5880: real time    0.5903
     EDDAV:  cpu time  117.3897: real time  117.9765
 BZINTS: Fermi energy:  5.252743;172.000000 electrons
         Band energy:***********;  BLOECHL correction:  0.000000
       DOS:  cpu time    0.0400: real time    0.0402
    CHARGE:  cpu time    1.4770: real time    1.4896
    MIXING:  cpu time    0.0023: real time    0.0023
    --------------------------------------------
      LOOP:  cpu time  119.6300: real time  120.2327

 eigenvalue-minimisations  : 34560
 total energy-change (2. order) :-0.5309188E-04  (-0.6926043E-03)
 number of electron     172.0000035 magnetization       0.0000000     -0.0033043      0.0000000
 augmentation part       70.5787798 magnetization       0.0000000     -0.0027859      0.0000000

 Broyden mixing:
  rms(total) = 0.29145E-02    rms(broyden)= 0.29144E-02
  rms(prec ) = 0.29179E-02
  weight for this iteration     100.00

 eigenvalues of (default mixing * dielectric matrix)
  average eigenvalue GAMMA=   0.6940
  2.0126  1.0565  0.6227  0.4716  0.3115  0.2228  0.1603

 Free energy of the ion-electron system (eV)
  ---------------------------------------------------
  alpha Z        PSCENC =       595.55073201
  Ewald energy   TEWEN  =    -15701.16556788
  -Hartree energ DENC   =    -10688.57456288
  -exchange      EXHF   =         0.00000000
  -V(xc)+E(xc)   XCENC  =       821.58085002
  PAW double counting   =     27999.46769228   -28921.61911606
  entropy T*S    EENTRO =         0.00000000
  eigenvalues    EBANDS =     -2691.71581904
  atomic energy  EATOM  =     28505.01627691
  Solvation  Ediel_sol  =         0.00000000
  ---------------------------------------------------
  free energy    TOTEN  =       -81.45951464 eV

  energy without entropy =      -81.45951464  energy(sigma->0) =      -81.45951464


--------------------------------------------------------------------------------------------------------




--------------------------------------- Iteration      1(   9)  ---------------------------------------


    POTLOK:  cpu time    0.1315: real time    0.1324
    SETDIJ:  cpu time    0.5879: real time    0.5897
     EDDAV:  cpu time  192.6248: real time  193.5483
 BZINTS: Fermi energy:  5.252073;172.000000 electrons
         Band energy:***********;  BLOECHL correction:  0.000000
       DOS:  cpu time    0.0401: real time    0.0402
    CHARGE:  cpu time    1.4715: real time    1.4843
    MIXING:  cpu time    0.0027: real time    0.0027
    --------------------------------------------
      LOOP:  cpu time  194.8584: real time  195.7976

 eigenvalue-minimisations  : 42496
 total energy-change (2. order) : 0.4346373E-04  (-0.2554838E-03)
 number of electron     172.0000035 magnetization       0.0000000     -0.0040393      0.0000000
 augmentation part       70.5789410 magnetization       0.0000000     -0.0029636      0.0000000

 Broyden mixing:
  rms(total) = 0.15770E-02    rms(broyden)= 0.15770E-02
  rms(prec ) = 0.15877E-02
  weight for this iteration     100.00

 eigenvalues of (default mixing * dielectric matrix)
  average eigenvalue GAMMA=   0.6890
  2.1335  1.2110  0.6126  0.6126  0.2779  0.2779  0.2338  0.1531

 Free energy of the ion-electron system (eV)
  ---------------------------------------------------
  alpha Z        PSCENC =       595.55073201
  Ewald energy   TEWEN  =    -15701.16556788
  -Hartree energ DENC   =    -10688.56590188
  -exchange      EXHF   =         0.00000000
  -V(xc)+E(xc)   XCENC  =       821.58050347
  PAW double counting   =     27999.44674997   -28921.59675739
  entropy T*S    EENTRO =         0.00000000
  eigenvalues    EBANDS =     -2691.72550638
  atomic energy  EATOM  =     28505.01627691
  Solvation  Ediel_sol  =         0.00000000
  ---------------------------------------------------
  free energy    TOTEN  =       -81.45947118 eV

  energy without entropy =      -81.45947118  energy(sigma->0) =      -81.45947118


--------------------------------------------------------------------------------------------------------




--------------------------------------- Iteration      1(  10)  ---------------------------------------


    POTLOK:  cpu time    0.1301: real time    0.1330
    SETDIJ:  cpu time    0.5902: real time    0.5921
     EDDAV:  cpu time  101.2001: real time  101.7137
 BZINTS: Fermi energy:  5.252772;172.000000 electrons
         Band energy:***********;  BLOECHL correction:  0.000000
       DOS:  cpu time    0.0400: real time    0.0402
 


 total charge     
 
# of ion       s       p       d       tot
------------------------------------------
    1        1.318   2.398   0.000   3.716
    2        1.318   2.398   0.000   3.716
    3        1.320   2.388   0.000   3.709
    4        1.314   2.407   0.000   3.721
    5        1.318   2.398   0.000   3.716
    6        1.318   2.398   0.000   3.716
    7        1.320   2.388   0.000   3.709
    8        1.314   2.407   0.000   3.721
    9        0.256   6.199   8.917  15.372
   10        0.256   6.199   8.917  15.371
[...]
     0.0000000     0.0000000     0.0000000     0.0000000     0.0000000     0.0000000     0.0000000

 Ion:    5  E_soc:     -0.0017584
 l=   1
     0.0000000    -0.0002531    -0.0003649
    -0.0002531     0.0000000    -0.0002612
    -0.0003649    -0.0002612     0.0000000
 l=   2
     0.0000000     0.0000000     0.0000000     0.0000000     0.0000000
     0.0000000     0.0000000     0.0000000     0.0000000     0.0000000
     0.0000000     0.0000000     0.0000000     0.0000000     0.0000000
     0.0000000     0.0000000     0.0000000     0.0000000     0.0000000
     0.0000000     0.0000000     0.0000000     0.0000000     0.0000000
 l=   3
     0.0000000     0.0000000     0.0000000     0.0000000     0.0000000     0.0000000     0.0000000
     0.0000000     0.0000000     0.0000000     0.0000000     0.0000000     0.0000000     0.0000000
     0.0000000     0.0000000     0.0000000     0.0000000     0.0000000     0.0000000     0.0000000
     0.0000000     0.0000000     0.0000000     0.0000000     0.0000000     0.0000000     0.0000000
     0.0000000     0.0000000     0.0000000     0.0000000     0.0000000     0.0000000     0.0000000
     0.0000000     0.0000000     0.0000000     0.0000000     0.0000000     0.0000000     0.0000000
     0.0000000     0.0000000     0.0000000     0.0000000     0.0000000     0.0000000     0.0000000

 Ion:    6  E_soc:     -0.0017584
 l=   1
     0.0000000    -0.0002531    -0.0003649
    -0.0002531     0.0000000    -0.0002612
    -0.0003649    -0.0002612     0.0000000
 l=   2
     0.0000000     0.0000000     0.0000000     0.0000000     0.0000000
     0.0000000     0.0000000     0.0000000     0.0000000     0.0000000
     0.0000000     0.0000000     0.0000000     0.0000000     0.0000000
     0.0000000     0.0000000     0.0000000     0.0000000     0.0000000
     0.0000000     0.0000000     0.0000000     0.0000000     0.0000000
 l=   3
     0.0000000     0.0000000     0.0000000     0.0000000     0.0000000     0.0000000     0.0000000
     0.0000000     0.0000000     0.0000000     0.0000000     0.0000000     0.0000000     0.0000000
     0.0000000     0.0000000     0.0000000     0.0000000     0.0000000     0.0000000     0.0000000
     0.0000000     0.0000000     0.0000000     0.0000000     0.0000000     0.0000000     0.0000000
     0.0000000     0.0000000     0.0000000     0.0000000     0.0000000     0.0000000     0.0000000
     0.0000000     0.0000000     0.0000000     0.0000000     0.0000000     0.0000000     0.0000000
     0.0000000     0.0000000     0.0000000     0.0000000     0.0000000     0.0000000     0.0000000

 Ion:    7  E_soc:     -0.0018176
 l=   1
     0.0000000    -0.0002569    -0.0004010
    -0.0002569     0.0000000    -0.0002509
    -0.0004010    -0.0002509     0.0000000
 l=   2
     0.0000000     0.0000000     0.0000000     0.0000000     0.0000000
     0.0000000     0.0000000     0.0000000     0.0000000     0.0000000
     0.0000000     0.0000000     0.0000000     0.0000000     0.0000000
     0.0000000     0.0000000     0.0000000     0.0000000     0.0000000
     0.0000000     0.0000000     0.0000000     0.0000000     0.0000000
 l=   3
     0.0000000     0.0000000     0.0000000     0.0000000     0.0000000     0.0000000     0.0000000
     0.0000000     0.0000000     0.0000000     0.0000000     0.0000000     0.0000000     0.0000000
     0.0000000     0.0000000     0.0000000     0.0000000     0.0000000     0.0000000     0.0000000
     0.0000000     0.0000000     0.0000000     0.0000000     0.0000000     0.0000000     0.0000000
     0.0000000     0.0000000     0.0000000     0.0000000     0.0000000     0.0000000     0.0000000
     0.0000000     0.0000000     0.0000000     0.0000000     0.0000000     0.0000000     0.0000000
     0.0000000     0.0000000     0.0000000     0.0000000     0.0000000     0.0000000     0.0000000

 Ion:    8  E_soc:     -0.0016588
 l=   1
     0.0000000    -0.0002585    -0.0003190
    -0.0002585     0.0000000    -0.0002518
    -0.0003190    -0.0002518     0.0000000
 l=   2
     0.0000000     0.0000000     0.0000000     0.0000000     0.0000000
     0.0000000     0.0000000     0.0000000     0.0000000     0.0000000
     0.0000000     0.0000000     0.0000000     0.0000000     0.0000000
     0.0000000     0.0000000     0.0000000     0.0000000     0.0000000
     0.0000000     0.0000000     0.0000000     0.0000000     0.0000000
 l=   3
     0.0000000     0.0000000     0.0000000     0.0000000     0.0000000     0.0000000     0.0000000
     0.0000000     0.0000000     0.0000000     0.0000000     0.0000000     0.0000000     0.0000000
     0.0000000     0.0000000     0.0000000     0.0000000     0.0000000     0.0000000     0.0000000
     0.0000000     0.0000000     0.0000000     0.0000000     0.0000000     0.0000000     0.0000000
     0.0000000     0.0000000     0.0000000     0.0000000     0.0000000     0.0000000     0.0000000
     0.0000000     0.0000000     0.0000000     0.0000000     0.0000000     0.0000000     0.0000000
     0.0000000     0.0000000     0.0000000     0.0000000     0.0000000     0.0000000     0.0000000

 Ion:    9  E_soc:     -0.0619324
 l=   1
     0.0000000    -0.0085668    -0.0085608
    -0.0085668     0.0000000    -0.0085663
    -0.0085608    -0.0085663     0.0000000
 l=   2
     0.0000000    -0.0004008     0.0000000    -0.0003917    -0.0013771
    -0.0004008     0.0000000    -0.0010788    -0.0003051    -0.0003449
     0.0000000    -0.0010788     0.0000000    -0.0010408     0.0000000
    -0.0003917    -0.0003051    -0.0010408     0.0000000    -0.0003332
    -0.0013771    -0.0003449     0.0000000    -0.0003332     0.0000000
 l=   3
     0.0000000     0.0000000     0.0000000     0.0000000     0.0000000     0.0000000     0.0000000
     0.0000000     0.0000000     0.0000000     0.0000000     0.0000000     0.0000000     0.0000000
     0.0000000     0.0000000     0.0000000     0.0000000     0.0000000     0.0000000     0.0000000
     0.0000000     0.0000000     0.0000000     0.0000000     0.0000000     0.0000000     0.0000000
     0.0000000     0.0000000     0.0000000     0.0000000     0.0000000     0.0000000     0.0000000
     0.0000000     0.0000000     0.0000000     0.0000000     0.0000000     0.0000000     0.0000000
     0.0000000     0.0000000     0.0000000     0.0000000     0.0000000     0.0000000     0.0000000

 Ion:   10  E_soc:     -0.0619324
 l=   1
     0.0000000    -0.0085668    -0.0085608
    -0.0085668     0.0000000    -0.0085663
    -0.0085608    -0.0085663     0.0000000
 l=   2
     0.0000000    -0.0004008     0.0000000    -0.0003917    -0.0013771
    -0.0004008     0.0000000    -0.0010788    -0.0003051    -0.0003449
     0.0000000    -0.0010788     0.0000000    -0.0010408     0.0000000
    -0.0003917    -0.0003051    -0.0010408     0.0000000    -0.0003332
    -0.0013771    -0.0003449     0.0000000    -0.0003332     0.0000000
 l=   3
     0.0000000     0.0000000     0.0000000     0.0000000     0.0000000     0.0000000     0.0000000
     0.0000000     0.0000000     0.0000000     0.0000000     0.0000000     0.0000000     0.0000000
     0.0000000     0.0000000     0.0000000     0.0000000     0.0000000     0.0000000     0.0000000
     0.0000000     0.0000000     0.0000000     0.0000000     0.0000000     0.0000000     0.0000000
     0.0000000     0.0000000     0.0000000     0.0000000     0.0000000     0.0000000     0.0000000
     0.0000000     0.0000000     0.0000000     0.0000000     0.0000000     0.0000000     0.0000000
     0.0000000     0.0000000     0.0000000     0.0000000     0.0000000     0.0000000     0.0000000

 Ion:   11  E_soc:     -0.0619324
 l=   1
     0.0000000    -0.0085668    -0.0085608
    -0.0085668     0.0000000    -0.0085663
    -0.0085608    -0.0085663     0.0000000
 l=   2
     0.0000000    -0.0004008     0.0000000    -0.0003917    -0.0013771
    -0.0004008     0.0000000    -0.0010788    -0.0003051    -0.0003449
     0.0000000    -0.0010788     0.0000000    -0.0010408     0.0000000
    -0.0003917    -0.0003051    -0.0010408     0.0000000    -0.0003332
    -0.0013771    -0.0003449     0.0000000    -0.0003332     0.0000000
 l=   3
     0.0000000     0.0000000     0.0000000     0.0000000     0.0000000     0.0000000     0.0000000
     0.0000000     0.0000000     0.0000000     0.0000000     0.0000000     0.0000000     0.0000000
     0.0000000     0.0000000     0.0000000     0.0000000     0.0000000     0.0000000     0.0000000
     0.0000000     0.0000000     0.0000000     0.0000000     0.0000000     0.0000000     0.0000000
     0.0000000     0.0000000     0.0000000     0.0000000     0.0000000     0.0000000     0.0000000
     0.0000000     0.0000000     0.0000000     0.0000000     0.0000000     0.0000000     0.0000000
     0.0000000     0.0000000     0.0000000     0.0000000     0.0000000     0.0000000     0.0000000

 Ion:   12  E_soc:     -0.0619324
 l=   1
     0.0000000    -0.0085668    -0.0085608
    -0.0085668     0.0000000    -0.0085663
    -0.0085608    -0.0085663     0.0000000
 l=   2
     0.0000000    -0.0004008     0.0000000    -0.0003917    -0.0013771
    -0.0004008     0.0000000    -0.0010788    -0.0003051    -0.0003449
     0.0000000    -0.0010788     0.0000000    -0.0010408     0.0000000
    -0.0003917    -0.0003051    -0.0010408     0.0000000    -0.0003332
    -0.0013771    -0.0003449     0.0000000    -0.0003332     0.0000000
 l=   3
     0.0000000     0.0000000     0.0000000     0.0000000     0.0000000     0.0000000     0.0000000
     0.0000000     0.0000000     0.0000000     0.0000000     0.0000000     0.0000000     0.0000000
     0.0000000     0.0000000     0.0000000     0.0000000     0.0000000     0.0000000     0.0000000
     0.0000000     0.0000000     0.0000000     0.0000000     0.0000000     0.0000000     0.0000000
     0.0000000     0.0000000     0.0000000     0.0000000     0.0000000     0.0000000     0.0000000
     0.0000000     0.0000000     0.0000000     0.0000000     0.0000000     0.0000000     0.0000000
     0.0000000     0.0000000     0.0000000     0.0000000     0.0000000     0.0000000     0.0000000

 Ion:   13  E_soc:     -0.0367543
 l=   1
     0.0000000    -0.0042891    -0.0043114
    -0.0042891     0.0000000    -0.0042841
    -0.0043114    -0.0042841     0.0000000
 l=   2
     0.0000000    -0.0003545     0.0000000    -0.0003585    -0.0010080
    -0.0003545     0.0000000    -0.0013018    -0.0002868    -0.0004203
     0.0000000    -0.0013018     0.0000000    -0.0013276     0.0000000
    -0.0003585    -0.0002868    -0.0013276     0.0000000    -0.0004350
    -0.0010080    -0.0004203     0.0000000    -0.0004350     0.0000000
 l=   3
     0.0000000     0.0000000     0.0000000     0.0000000     0.0000000     0.0000000     0.0000000
     0.0000000     0.0000000     0.0000000     0.0000000     0.0000000     0.0000000     0.0000000
     0.0000000     0.0000000     0.0000000     0.0000000     0.0000000     0.0000000     0.0000000
     0.0000000     0.0000000     0.0000000     0.0000000     0.0000000     0.0000000     0.0000000
     0.0000000     0.0000000     0.0000000     0.0000000     0.0000000     0.0000000     0.0000000
     0.0000000     0.0000000     0.0000000     0.0000000     0.0000000     0.0000000     0.0000000
     0.0000000     0.0000000     0.0000000     0.0000000     0.0000000     0.0000000     0.0000000

 Ion:   14  E_soc:     -0.0367543
 l=   1
     0.0000000    -0.0042891    -0.0043114
    -0.0042891     0.0000000    -0.0042841
    -0.0043114    -0.0042841     0.0000000
 l=   2
     0.0000000    -0.0003545     0.0000000    -0.0003585    -0.0010080
    -0.0003545     0.0000000    -0.0013018    -0.0002868    -0.0004203
     0.0000000    -0.0013018     0.0000000    -0.0013276     0.0000000
    -0.0003585    -0.0002868    -0.0013276     0.0000000    -0.0004350
    -0.0010080    -0.0004203     0.0000000    -0.0004350     0.0000000
 l=   3
     0.0000000     0.0000000     0.0000000     0.0000000     0.0000000     0.0000000     0.0000000
     0.0000000     0.0000000     0.0000000     0.0000000     0.0000000     0.0000000     0.0000000
     0.0000000     0.0000000     0.0000000     0.0000000     0.0000000     0.0000000     0.0000000
     0.0000000     0.0000000     0.0000000     0.0000000     0.0000000     0.0000000     0.0000000
     0.0000000     0.0000000     0.0000000     0.0000000     0.0000000     0.0000000     0.0000000
     0.0000000     0.0000000     0.0000000     0.0000000     0.0000000     0.0000000     0.0000000
     0.0000000     0.0000000     0.0000000     0.0000000     0.0000000     0.0000000     0.0000000

 Ion:   15  E_soc:     -0.0367543
 l=   1
     0.0000000    -0.0042891    -0.0043114
    -0.0042891     0.0000000    -0.0042841
    -0.0043114    -0.0042841     0.0000000
 l=   2
     0.0000000    -0.0003545     0.0000000    -0.0003585    -0.0010080
    -0.0003545     0.0000000    -0.0013018    -0.0002868    -0.0004203
     0.0000000    -0.0013018     0.0000000    -0.0013276     0.0000000
    -0.0003585    -0.0002868    -0.0013276     0.0000000    -0.0004350
    -0.0010080    -0.0004203     0.0000000    -0.0004350     0.0000000
 l=   3
     0.0000000     0.0000000     0.0000000     0.0000000     0.0000000     0.0000000     0.0000000
     0.0000000     0.0000000     0.0000000     0.0000000     0.0000000     0.0000000     0.0000000
     0.0000000     0.0000000     0.0000000     0.0000000     0.0000000     0.0000000     0.0000000
     0.0000000     0.0000000     0.0000000     0.0000000     0.0000000     0.0000000     0.0000000
     0.0000000     0.0000000     0.0000000     0.0000000     0.0000000     0.0000000     0.0000000
     0.0000000     0.0000000     0.0000000     0.0000000     0.0000000     0.0000000     0.0000000
     0.0000000     0.0000000     0.0000000     0.0000000     0.0000000     0.0000000     0.0000000

 Ion:   16  E_soc:     -0.0367543
 l=   1
     0.0000000    -0.0042891    -0.0043114
    -0.0042891     0.0000000    -0.0042841
    -0.0043114    -0.0042841     0.0000000
 l=   2
     0.0000000    -0.0003545     0.0000000    -0.0003585    -0.0010080
    -0.0003545     0.0000000    -0.0013018    -0.0002868    -0.0004203
     0.0000000    -0.0013018     0.0000000    -0.0013276     0.0000000
    -0.0003585    -0.0002868    -0.0013276     0.0000000    -0.0004350
    -0.0010080    -0.0004203     0.0000000    -0.0004350     0.0000000
 l=   3
     0.0000000     0.0000000     0.0000000     0.0000000     0.0000000     0.0000000     0.0000000
     0.0000000     0.0000000     0.0000000     0.0000000     0.0000000     0.0000000     0.0000000
     0.0000000     0.0000000     0.0000000     0.0000000     0.0000000     0.0000000     0.0000000
     0.0000000     0.0000000     0.0000000     0.0000000     0.0000000     0.0000000     0.0000000
     0.0000000     0.0000000     0.0000000     0.0000000     0.0000000     0.0000000     0.0000000
     0.0000000     0.0000000     0.0000000     0.0000000     0.0000000     0.0000000     0.0000000
     0.0000000     0.0000000     0.0000000     0.0000000     0.0000000     0.0000000     0.0000000
 


 total charge     
 
# of ion       s       p       d       tot
------------------------------------------
    1        1.318   2.398   0.000   3.716
    2        1.318   2.398   0.000   3.716
    3        1.320   2.388   0.000   3.709
    4        1.314   2.407   0.000   3.721
    5        1.318   2.398   0.000   3.716
    6        1.318   2.398   0.000   3.716
    7        1.320   2.388   0.000   3.709
    8        1.314   2.407   0.000   3.721
    9        0.256   6.199   8.917  15.372
   10        0.256   6.199   8.917  15.371
   11        0.256   6.199   8.917  15.372
   12        0.256   6.199   8.917  15.371
   13        0.342   6.341   5.833  12.515
   14        0.342   6.341   5.833  12.516
   15        0.342   6.341   5.833  12.515
   16        0.342   6.341   5.833  12.516
--------------------------------------------------
tot         12.931  69.339  59.000 141.270
 


 magnetization (x)
 
# of ion       s       p       d       tot
------------------------------------------
    1       -0.000  -0.000   0.000  -0.000
    2        0.000  -0.000   0.000   0.000
    3       -0.000  -0.000   0.000  -0.000
    4       -0.000  -0.000   0.000  -0.000
    5        0.000  -0.000   0.000   0.000
    6       -0.000  -0.000   0.000  -0.000
    7       -0.000  -0.000   0.000  -0.000
    8       -0.000  -0.000   0.000  -0.000
    9       -0.000  -0.000  -0.000  -0.000
   10        0.000   0.000  -0.000  -0.000
   11       -0.000  -0.000  -0.000  -0.000
   12        0.000   0.000  -0.000  -0.000
   13       -0.000   0.000   0.005   0.005
   14       -0.000  -0.000  -0.005  -0.005
   15       -0.000   0.000   0.005   0.005
   16       -0.000  -0.000  -0.005  -0.005
--------------------------------------------------
tot         -0.000  -0.001  -0.000  -0.001
 


 magnetization (y)
 
# of ion       s       p       d       tot
------------------------------------------
    1       -0.000  -0.000   0.000  -0.000
    2       -0.000  -0.000   0.000  -0.000
    3       -0.000   0.000   0.000   0.000
    4        0.000   0.000   0.000   0.000
    5       -0.000  -0.000   0.000  -0.000
    6       -0.000  -0.000   0.000  -0.000
    7       -0.000   0.000   0.000   0.000
    8        0.000   0.000   0.000   0.000
    9       -0.000   0.000  -0.000  -0.000
   10       -0.000   0.000   0.000   0.000
   11       -0.000   0.000  -0.000  -0.000
   12       -0.000   0.000   0.000   0.000
   13       -0.000  -0.000  -0.006  -0.007
   14       -0.000  -0.000  -0.007  -0.007
   15       -0.000  -0.000  -0.006  -0.007
   16       -0.000  -0.000  -0.007  -0.007
--------------------------------------------------
tot         -0.000  -0.001  -0.026  -0.027
 


 magnetization (z)
 
# of ion       s       p       d       tot
------------------------------------------
    1       -0.000  -0.047   0.000  -0.047
    2        0.000   0.047   0.000   0.047
    3        0.000   0.000   0.000   0.000
    4       -0.000  -0.000   0.000  -0.000
    5        0.000   0.047   0.000   0.047
    6       -0.000  -0.047   0.000  -0.047
    7        0.000   0.000   0.000   0.000
    8       -0.000  -0.000   0.000  -0.000
    9        0.001   0.002  -0.010  -0.008
   10       -0.001  -0.002   0.010   0.008
   11        0.001   0.002  -0.010  -0.008
   12       -0.001  -0.002   0.010   0.008
   13        0.021   0.054   3.647   3.722
   14       -0.021  -0.054  -3.647  -3.722
   15        0.021   0.054   3.647   3.722
   16       -0.021  -0.054  -3.647  -3.722
--------------------------------------------------
tot         -0.000  -0.000   0.001   0.000
 
 BZINTS: Fermi energy:  5.252390;172.000000 electrons
         Band energy:***********;  BLOECHL correction:  0.000000
 BZINTS: Fermi energy:  5.252390;172.000000 electrons
         Band energy:***********;  BLOECHL correction:  0.000000
 BZINTS: Fermi energy:  5.252390;172.000000 electrons
         Band energy:***********;  BLOECHL correction:  0.000000
 BZINTS: Fermi energy:  5.252390;172.000000 electrons
         Band energy:***********;  BLOECHL correction:  0.000000

 total amount of memory used by VASP MPI-rank0   403236. kBytes
=======================================================================

   base      :      30000. kBytes
   nonl-proj :     314949. kBytes
   fftplans  :       2735. kBytes
   grid      :      30965. kBytes
   one-center:        995. kBytes
   wavefun   :      23592. kBytes
 
  
  
 General timing and accounting informations for this job:
 ========================================================
  
                  Total CPU time used (sec):    22952.436
                            User time (sec):    22937.973
                          System time (sec):       14.462
                         Elapsed time (sec):    23209.288
  
                   Maximum memory used (kb):      853160.
                   Average memory used (kb):           0.
  
                          Minor page faults:      3170287
                          Major page faults:         5282
                 Voluntary context switches:         6936
