       N       E                     dE             d eps       ncg     rms          ort
SDA:   1    -0.818530328761E+02   -0.81853E+02    0.00000E+00  4784   0.395E-06 0.000E+00
CGA:   2    -0.818530330273E+02   -0.15124E-06   -0.50662E-09  4784   0.364E-06 0.381E-06
CGA:   3    -0.818530331570E+02   -0.12962E-06   -0.42311E-09  4784   0.338E-06 0.353E-06
CGA:   4    -0.818530332692E+02   -0.11225E-06   -0.35808E-09  4784   0.316E-06 0.329E-06
CGA:   5    -0.818530333674E+02   -0.98174E-07   -0.30686E-09  4784   0.298E-06 0.308E-06
CGA:   6    -0.818530334541E+02   -0.86717E-07   -0.26609E-09  4784   0.282E-06 0.291E-06
CGA:   7    -0.818530335314E+02   -0.77353E-07   -0.23333E-09  4784   0.268E-06 0.276E-06
CGA:   8    -0.818530336011E+02   -0.69644E-07   -0.20679E-09  4784   0.255E-06 0.262E-06
CGA:   9    -0.818530336644E+02   -0.63266E-07   -0.18516E-09  4784   0.244E-06 0.251E-06
CGA:  10    -0.818530337225E+02   -0.58111E-07   -0.16760E-09  4784   0.235E-06 0.240E-06
CGA:  11    -0.818530337764E+02   -0.53946E-07   -0.15350E-09  4784   0.226E-06 0.231E-06
CGA:  12    -0.818530338269E+02   -0.50504E-07   -0.14171E-09  4784   0.218E-06 0.222E-06
CGA:  13    -0.818530338741E+02   -0.47143E-07   -0.13057E-09  4784   0.210E-06 0.215E-06
CGA:  14    -0.818530339182E+02   -0.44185E-07   -0.12080E-09  4784   0.204E-06 0.207E-06
CGA:  15    -0.818530339600E+02   -0.41782E-07   -0.11291E-09  4784   0.197E-06 0.201E-06
CGA:  16    -0.818530340000E+02   -0.40003E-07   -0.10659E-09  4784   0.192E-06 0.195E-06
CGA:  17    -0.818530340386E+02   -0.38528E-07   -0.10158E-09  4784   0.186E-06 0.189E-06
CGA:  18    -0.818530340761E+02   -0.37577E-07   -0.97740E-10  4784   0.181E-06 0.184E-06
CGA:  19    -0.818530341132E+02   -0.37071E-07   -0.95042E-10  4784   0.176E-06 0.179E-06
CGA:  20    -0.818530341501E+02   -0.36907E-07   -0.93560E-10  4784   0.171E-06 0.174E-06
CGA:  21    -0.818530341876E+02   -0.37442E-07   -0.93520E-10  4784   0.166E-06 0.169E-06
CGA:  22    -0.818530342262E+02   -0.38675E-07   -0.95232E-10  4784   0.161E-06 0.164E-06
CGA:  23    -0.818530342670E+02   -0.40776E-07   -0.98719E-10  4784   0.156E-06 0.159E-06
CGA:  24    -0.818530343106E+02   -0.43641E-07   -0.10401E-09  4784   0.151E-06 0.154E-06
CGA:  25    -0.818530343589E+02   -0.48281E-07   -0.11278E-09  4784   0.145E-06 0.148E-06
CGA:  26    -0.818530344154E+02   -0.56472E-07   -0.12877E-09  4784   0.139E-06 0.142E-06
CGA:  27    -0.818530344881E+02   -0.72687E-07   -0.16101E-09  4784   0.131E-06 0.135E-06
CGA:  28    -0.818530346035E+02   -0.11540E-06   -0.24490E-09  4784   0.119E-06 0.125E-06
CGA:  29    -0.818530350317E+02   -0.42825E-06   -0.81704E-09  4784   0.813E-07 0.976E-07
CGA:  30    -0.818530350717E+02   -0.39960E-07    0.48400E-09  4784   0.986E-07-0.433E-07
CGA:  31    -0.818530350962E+02   -0.24462E-07   -0.33304E-10  4784   0.963E-07 0.975E-07
CGA:  32    -0.818530351239E+02   -0.27781E-07   -0.37291E-10  4784   0.936E-07 0.950E-07
CGA:  33    -0.818530351576E+02   -0.33660E-07   -0.44607E-10  4784   0.905E-07 0.921E-07
CGA:  34    -0.818530352039E+02   -0.46341E-07   -0.60264E-10  4784   0.863E-07 0.884E-07
CGA:  35    -0.818530352904E+02   -0.86429E-07   -0.10947E-09  4784   0.787E-07 0.824E-07
CGA:  36    -0.818530333486E+02    0.19417E-05   -0.58807E-08  4784   0.317E-06-0.131E-06
CGA:  37    -0.818530343848E+02   -0.10362E-05    0.15549E-09  4784   0.169E-06-0.213E-06
CGA:  38    -0.818530346094E+02   -0.22462E-06    0.21162E-09  4784   0.143E-06-0.143E-06
CGA:  39    -0.818530347806E+02   -0.17121E-06    0.20059E-09  4784   0.127E-06-0.124E-06
CGA:  40    -0.818530348243E+02   -0.43674E-07    0.74356E-09  4784   0.118E-06-0.112E-06
CGA:  41    -0.818530349378E+02   -0.11349E-06    0.20689E-09  4784   0.110E-06-0.105E-06
CGA:  42    -0.818530349650E+02   -0.27218E-07    0.10218E-08  4784   0.105E-06-0.995E-07
CGA:  43    -0.818530350392E+02   -0.74131E-07    0.26218E-09  4784   0.101E-06-0.956E-07
CGA:  44    -0.818530350506E+02   -0.11391E-07    0.46111E-08  4784   0.975E-07-0.924E-07
CGA:  45    -0.818530350996E+02   -0.49005E-07    0.35881E-09  4784   0.948E-07-0.902E-07
CGA:  46    -0.818530351115E+02   -0.11896E-07    0.31849E-08  4784   0.923E-07-0.882E-07
CGA:  47    -0.818530351473E+02   -0.35867E-07    0.46567E-09  4784   0.903E-07-0.865E-07
CGA:  48    -0.818530321485E+02    0.29988E-05   -0.75206E-08  4784   0.484E-06-0.203E-06
CGA:  49    -0.818530341887E+02   -0.20402E-05    0.20347E-09  4784   0.223E-06-0.323E-06
CGA:  50    -0.818530343763E+02   -0.18765E-06    0.51359E-09  4784   0.179E-06-0.196E-06
CGA:  51    -0.818530346463E+02   -0.27003E-06    0.21849E-09  4784   0.152E-06-0.162E-06
CGA:  52    -0.818530346950E+02   -0.48612E-07    0.11161E-08  4784   0.138E-06-0.143E-06
CGA:  53    -0.818530348228E+02   -0.12786E-06    0.28603E-09  4784   0.129E-06-0.131E-06
CGA:  54    -0.818530348365E+02   -0.13684E-07    0.96892E-08  4784   0.123E-06-0.124E-06
CGA:  55    -0.818530349065E+02   -0.70026E-07    0.43926E-09  4784   0.118E-06-0.119E-06
CGA:  56    -0.818530363924E+02   -0.14858E-05   -0.25011E-08  4784   0.709E-09-0.657E-09
CGA:  57    -0.818530363923E+02    0.20009E-10   -0.10831E-12  4784   0.721E-09 0.704E-09
   1 F= -.81853036E+02 E0= -.81853036E+02  d E =0.000000E+00  mag=     0.0000    -0.0000     0.0000
