 vasp.5.4.4.18Apr17-6-g9f103f2a35 (build Oct 04 2018 15:53:47) complex          
  
 executed on             LinuxIFC date 2022.10.07  15:46:26
 running on  256 total cores
 distrk:  each k-point on  256 cores,    1 groups
 distr:  one band on NCORES_PER_BAND=  32 cores,    8 groups


--------------------------------------------------------------------------------------------------------


 INCAR:
 POTCAR:    PAW_PBE S 06Sep2000                   
 POTCAR:     PAW_PBE Cu_pv 06Sep2000              
 POTCAR:     PAW_PBE Fe_pv 02Aug2007              
 POTCAR:    PAW_PBE S 06Sep2000                   
   SHA256 =  0fc7481fb0695f01bdc6462160264c5c84044ae9ec85a907d398b887a2bc3132 S/
   COPYR  = (c) Copyright 06Sep2000 Georg Kresse                                
   COPYR  = This file is part of the software VASP. Any use, copying, and all ot
   COPYR  = If you do not have a valid VASP license, you may not use, copy or di
   VRHFIN =S : s2p4                                                             
   LEXCH  = PE                                                                  
   EATOM  =   276.8230 eV,   20.3459 Ry                                         
                                                                                
   TITEL  = PAW_PBE S 06Sep2000                                                 
   LULTRA =        F    use ultrasoft PP ?                                      
   IUNSCR =        1    unscreen: 0-lin 1-nonlin 2-no                           
   RPACOR =    1.500    partial core radius                                     
   POMASS =   32.066; ZVAL   =    6.000    mass and valenz                      
   RCORE  =    1.900    outmost cutoff radius                                   
   RWIGS  =    2.200; RWIGS  =    1.164    wigner-seitz radius (au A)           
   ENMAX  =  258.689; ENMIN  =  194.016 eV                                      
   ICORE  =        2    local potential                                         
   LCOR   =        T    correct aug charges                                     
   LPAW   =        T    paw PP                                                  
   EAUG   =  335.092                                                            
   DEXC   =    0.000                                                            
   RMAX   =    1.942    core radius for proj-oper                               
   RAUG   =    1.300    factor for augmentation sphere                          
   RDEP   =    1.954    radius for radial grids                                 
   RDEPT  =    1.744    core radius for aug-charge                              
                                                                                
   Atomic configuration                                                         
    6 entries                                                                   
     n  l   j            E        occ.                                          
     1  0  0.50     -2405.8406   2.0000                                         
     2  0  0.50      -211.7007   2.0000                                         
     2  1  1.50      -156.4958   6.0000                                         
     3  0  0.50       -17.2562   2.0000                                         
     3  1  0.50        -7.0085   4.0000                                         
     3  2  1.50        -6.8029   0.0000                                         
   Description                                                                  
     l       E           TYP  RCUT    TYP  RCUT                                 
     0    -17.2561641     23  1.900                                             
     0    -15.8743224     23  1.900                                             
     1     -7.0085400     23  1.900                                             
     1     -2.7779785     23  1.900                                             
     2     -6.8029130     23  1.900                                             
  local pseudopotential read in
  partial core-charges read in
  partial kinetic energy density read in
  atomic valenz-charges read in
  non local Contribution for L=           0  read in
    real space projection operators read in
  non local Contribution for L=           0  read in
    real space projection operators read in
  non local Contribution for L=           1  read in
    real space projection operators read in
  non local Contribution for L=           1  read in
    real space projection operators read in
    PAW grid and wavefunctions read in
 
   number of l-projection  operators is LMAX  =           4
   number of lm-projection operators is LMMAX =           8
 
 POTCAR:     PAW_PBE Cu_pv 06Sep2000              
   SHA256 =  cb7b504e2ea725fe1f25c85a9ac77d4012ce94cd394135b722c4e25ec297f1cb Cu
   COPYR  = (c) Copyright 06Sep2000 Georg Kresse                                
   COPYR  = This file is part of the software VASP. Any use, copying, and all ot
   COPYR  = If you do not have a valid VASP license, you may not use, copy or di
   VRHFIN =Cu: d10 p1                                                           
   LEXCH  = PE                                                                  
   EATOM  =  4120.1201 eV,  302.8203 Ry                                         
                                                                                
   TITEL  = PAW_PBE Cu_pv 06Sep2000                                             
   LULTRA =        F    use ultrasoft PP ?                                      
   IUNSCR =        1    unscreen: 0-lin 1-nonlin 2-no                           
   RPACOR =    1.500    partial core radius                                     
   POMASS =   63.546; ZVAL   =   17.000    mass and valenz                      
   RCORE  =    2.000    outmost cutoff radius                                   
   RWIGS  =    2.000; RWIGS  =    1.058    wigner-seitz radius (au A)           
   ENMAX  =  368.648; ENMIN  =  276.486 eV                                      
   RCLOC  =    1.304    cutoff for local pot                                    
   LCOR   =        T    correct aug charges                                     
   LPAW   =        T    paw PP                                                  
   EAUG   =  758.233                                                            
   DEXC   =    0.000                                                            
   RMAX   =    2.046    core radius for proj-oper                               
   RAUG   =    1.300    factor for augmentation sphere                          
   RDEP   =    2.025    radius for radial grids                                 
   RDEPT  =    1.558    core radius for aug-charge                              
                                                                                
   Atomic configuration                                                         
    8 entries                                                                   
     n  l   j            E        occ.                                          
     1  0  0.50     -8850.2467   2.0000                                         
     2  0  0.50     -1062.3498   2.0000                                         
     2  1  1.50      -916.8226   6.0000                                         
     3  0  0.50      -114.6929   2.0000                                         
     3  1  1.50       -72.1325   6.0000                                         
     3  2  2.50        -5.0394  10.0000                                         
     4  0  0.50        -4.6097   1.0000                                         
     4  3  2.50        -1.3606   0.0000                                         
   Description                                                                  
     l       E           TYP  RCUT    TYP  RCUT                                 
     1    -72.1324777     23  1.700                                             
     1     -1.3605826     23  1.700                                             
     2     -5.0393776     23  2.000                                             
     2     -6.3999602     23  2.000                                             
     0     -4.6097062     23  1.800                                             
     0     14.1620818     23  1.800                                             
  local pseudopotential read in
  partial core-charges read in
  partial kinetic energy density read in
  atomic valenz-charges read in
  non local Contribution for L=           1  read in
    real space projection operators read in
  non local Contribution for L=           1  read in
    real space projection operators read in
  non local Contribution for L=           2  read in
    real space projection operators read in
  non local Contribution for L=           2  read in
    real space projection operators read in
  non local Contribution for L=           0  read in
    real space projection operators read in
  non local Contribution for L=           0  read in
    real space projection operators read in
    PAW grid and wavefunctions read in
 
   number of l-projection  operators is LMAX  =           6
   number of lm-projection operators is LMMAX =          18
 
 POTCAR:     PAW_PBE Fe_pv 02Aug2007              
   SHA256 =  5d22e414b1f82158bf2c7ecb8b97b28fd0923e48cadc1c3bf74d524558f5dd32 Fe
   COPYR  = (c) Copyright 02Aug2007 Georg Kresse                                
   COPYR  = This file is part of the software VASP. Any use, copying, and all ot
   COPYR  = If you do not have a valid VASP license, you may not use, copy or di
   VRHFIN =Fe:  3pd7s1                                                          
   LEXCH  = PE                                                                  
   EATOM  =  2457.4239 eV,  180.6156 Ry                                         
                                                                                
   TITEL  = PAW_PBE Fe_pv 02Aug2007                                             
   LULTRA =        F    use ultrasoft PP ?                                      
   IUNSCR =        1    unscreen: 0-lin 1-nonlin 2-no                           
   RPACOR =    1.750    partial core radius                                     
   POMASS =   55.847; ZVAL   =   14.000    mass and valenz                      
   RCORE  =    2.200    outmost cutoff radius                                   
   RWIGS  =    2.200; RWIGS  =    1.164    wigner-seitz radius (au A)           
   ENMAX  =  293.238; ENMIN  =  219.928 eV                                      
   ICORE  =        3    local potential                                         
   LCOR   =        T    correct aug charges                                     
   LPAW   =        T    paw PP                                                  
   EAUG   =  578.342                                                            
   DEXC   =    0.000                                                            
   RMAX   =    2.249    core radius for proj-oper                               
   RAUG   =    1.300    factor for augmentation sphere                          
   RDEP   =    2.296    radius for radial grids                                 
   RDEPT  =    1.766    core radius for aug-charge                              
                                                                                
   Atomic configuration                                                         
    8 entries                                                                   
     n  l   j            E        occ.                                          
     1  0  0.50     -6993.8440   2.0000                                         
     2  0  0.50      -814.6047   2.0000                                         
     2  1  1.50      -693.3689   6.0000                                         
     3  0  0.50       -89.4732   2.0000                                         
     3  1  1.50       -55.6373   6.0000                                         
     3  2  2.50        -3.8151   7.0000                                         
     4  0  0.50        -4.2551   1.0000                                         
     4  3  2.50        -1.3606   0.0000                                         
   Description                                                                  
     l       E           TYP  RCUT    TYP  RCUT                                 
     1    -55.6372668     23  2.000                                             
     1     -5.4423304     23  2.000                                             
     2     -3.8151096     23  2.200                                             
     2     -5.1756922     23  2.200                                             
     0     -4.2550951     23  2.200                                             
     0     27.2116520     23  2.200                                             
     3     -1.3605826     23  2.200                                             
  local pseudopotential read in
  partial core-charges read in
  partial kinetic energy density read in
  atomic valenz-charges read in
  non local Contribution for L=           1  read in
    real space projection operators read in
  non local Contribution for L=           1  read in
    real space projection operators read in
  non local Contribution for L=           2  read in
    real space projection operators read in
  non local Contribution for L=           2  read in
    real space projection operators read in
  non local Contribution for L=           0  read in
    real space projection operators read in
  non local Contribution for L=           0  read in
    real space projection operators read in
    PAW grid and wavefunctions read in
 
   number of l-projection  operators is LMAX  =           6
   number of lm-projection operators is LMMAX =          18
 

 ----------------------------------------------------------------------------- 
|                                                                             |
|  ADVICE TO THIS USER RUNNING 'VASP/VAMP'   (HEAR YOUR MASTER'S VOICE ...):  |
|                                                                             |
|      You enforced a specific xc-type in the INCAR file,                     |
|      a different type was found on the POTCAR file                          |
|          I HOPE YOU KNOW, WHAT YOU ARE  DOING                               |
|                                                                             |
 ----------------------------------------------------------------------------- 

  PAW_PBE S 06Sep2000                   :
 energy of atom  1       EATOM= -276.8230
 kinetic energy error for atom=    0.0007 (will be added to EATOM!!)
   PAW_PBE Cu_pv 06Sep2000              :
 energy of atom  2       EATOM=-4120.1201
 kinetic energy error for atom=    0.0094 (will be added to EATOM!!)
   PAW_PBE Fe_pv 02Aug2007              :
 energy of atom  3       EATOM=-2457.4239
 kinetic energy error for atom=    0.0025 (will be added to EATOM!!)
 
 
 POSCAR: sm_isp_SD0310437-standardized_unitcell  
  positions in direct lattice
  velocities in cartesian coordinates
 exchange correlation table for  LEXCH =       14
   RHO(1)=    0.500       N(1)  =     2000
   RHO(2)=  100.500       N(2)  =     4000
 


--------------------------------------------------------------------------------------------------------


 ion  position               nearest neighbor table
   1  0.251  0.250  0.125-  10 2.29  11 2.29  13 2.29  16 2.29
   2  0.749  0.750  0.125-  10 2.29  11 2.29  13 2.29  16 2.29
   3  0.250  0.749  0.875-  11 2.29  12 2.29  13 2.29  14 2.29
   4  0.750  0.251  0.875-  11 2.29  12 2.29  13 2.29  14 2.29
   5  0.249  0.250  0.625-   9 2.29  12 2.29  14 2.29  15 2.29
   6  0.751  0.750  0.625-   9 2.29  12 2.29  14 2.29  15 2.29
   7  0.750  0.249  0.375-   9 2.29  10 2.29  15 2.29  16 2.29
   8  0.250  0.751  0.375-   9 2.29  10 2.29  15 2.29  16 2.29
   9  0.000  0.000  0.500-   5 2.29   7 2.29   6 2.29   8 2.29
  10  0.500  0.000  0.250-   7 2.29   1 2.29   2 2.29   8 2.29
  11  0.500  0.500  0.000-   1 2.29   4 2.29   3 2.29   2 2.29
  12  0.000  0.500  0.750-   5 2.29   4 2.29   3 2.29   6 2.29
  13  0.000  0.000  0.000-   2 2.29   3 2.29   1 2.29   4 2.29
  14  0.500  0.000  0.750-   3 2.29   6 2.29   4 2.29   5 2.29
  15  0.500  0.500  0.500-   6 2.29   8 2.29   7 2.29   5 2.29
  16  0.000  0.500  0.250-   2 2.29   8 2.29   1 2.29   7 2.29
 
  LATTYP: Found a simple tetragonal cell.
 ALAT       =     5.4691370817
 C/A-ratio  =     1.7946438242
  
  Lattice vectors:
  
 A1 = (   5.4691370817,   0.0000000000,   0.0000000000)
 A2 = (   0.0000000000,   5.4691370817,   0.0000000000)
 A3 = (   0.0000000000,   0.0000000000,   9.8151530875)


Analysis of symmetry for initial positions (statically):
=====================================================================
 Subroutine PRICEL returns following result:
 
  LATTYP: Found a body centered tetragonal cell.
 ALAT       =     5.4691370817
 C/A-ratio  =     1.7946438242
  
  Lattice vectors:
  
 A1 = (   2.7345685409,  -2.7345685409,   4.9075765438)
 A2 = (  -2.7345685409,   2.7345685409,   4.9075765438)
 A3 = (  -2.7345685409,  -2.7345685409,  -4.9075765438)
 
   2 primitive cells build up your supercell.
 

 Routine SETGRP: Setting up the symmetry group for a 
 simple tetragonal supercell.


 Subroutine GETGRP returns: Found  8 space group operations
 (whereof  4 operations were pure point group operations)
 out of a pool of 16 trial point group operations.


The static configuration has the point symmetry S_4 .
 The point group associated with its full space group is D_2d.


Analysis of symmetry for dynamics (positions and initial velocities):
=====================================================================
 Subroutine PRICEL returns following result:
 
  LATTYP: Found a body centered tetragonal cell.
 ALAT       =     5.4691370817
 C/A-ratio  =     1.7946438242
  
  Lattice vectors:
  
 A1 = (   2.7345685409,  -2.7345685409,   4.9075765438)
 A2 = (  -2.7345685409,   2.7345685409,   4.9075765438)
 A3 = (  -2.7345685409,  -2.7345685409,  -4.9075765438)
 
   2 primitive cells build up your supercell.
 

 Routine SETGRP: Setting up the symmetry group for a 
 simple tetragonal supercell.


 Subroutine GETGRP returns: Found  8 space group operations
 (whereof  4 operations were pure point group operations)
 out of a pool of 16 trial point group operations.


The dynamic configuration has the point symmetry S_4 .
 The point group associated with its full space group is D_2d.


Analysis of structural, dynamic, and magnetic symmetry:
=====================================================================
 Subroutine PRICEL returns following result:
 
  LATTYP: Found a body centered tetragonal cell.
 ALAT       =     5.4691370817
 C/A-ratio  =     1.7946438242
  
  Lattice vectors:
  
 A1 = (   2.7345685409,  -2.7345685409,   4.9075765438)
 A2 = (  -2.7345685409,   2.7345685409,   4.9075765438)
 A3 = (  -2.7345685409,  -2.7345685409,  -4.9075765438)
 
   2 primitive cells build up your supercell.
 

 Routine SETGRP: Setting up the symmetry group for a 
 simple tetragonal supercell.


 Subroutine GETGRP returns: Found  8 space group operations
 (whereof  4 operations were pure point group operations)
 out of a pool of 16 trial point group operations.


The (compounded) configuration has the point symmetry S_4 .
 The point group associated with its full space group is D_2d.


 Subroutine INISYM returns: Found  8 space group operations
 (whereof  4 operations are pure point group operations),
 and found     2 'primitive' translations

 
 
 KPOINTS: Automatic mesh                          

Automatic generation of k-mesh.
Space group operators:
 irot       det(A)        alpha          n_x          n_y          n_z        tau_x        tau_y        tau_z
    1     1.000000     0.000000     1.000000     0.000000     0.000000     0.000000     0.000000     0.000000
    2    -1.000000    90.000000     0.000000     0.000000    -1.000000     0.000000     0.000000     0.000000
    3     1.000000   180.000000     0.000000     0.000000     1.000000     0.000000     0.000000     0.000000
    4    -1.000000    90.000000     0.000000     0.000000     1.000000     0.000000     0.000000     0.000000
    5     1.000000   180.000000     0.000000     1.000000     0.000000     0.000000    -0.500000     0.250000
    6    -1.000000   180.000000     0.707107     0.707107     0.000000     0.000000    -0.500000     0.250000
    7     1.000000   180.000000     1.000000     0.000000     0.000000     0.000000    -0.500000     0.250000
    8    -1.000000   180.000000     0.707107    -0.707107     0.000000     0.000000    -0.500000     0.250000
 
 Subroutine IBZKPT returns following result:
 ===========================================
 
 Found     23 irreducible k-points:
 
 Following reciprocal coordinates:
            Coordinates               Weight
  0.000000  0.000000  0.000000      1.000000
  0.166667  0.000000  0.000000      4.000000
  0.333333  0.000000  0.000000      4.000000
  0.500000  0.000000  0.000000      2.000000
  0.166667  0.166667  0.000000      4.000000
  0.333333  0.166667  0.000000      8.000000
  0.500000  0.166667  0.000000      4.000000
  0.333333  0.333333  0.000000      4.000000
  0.500000  0.333333  0.000000      4.000000
  0.500000  0.500000  0.000000      1.000000
  0.000000  0.000000  0.333333      2.000000
  0.166667  0.000000  0.333333      8.000000
  0.333333  0.000000  0.333333      8.000000
  0.500000  0.000000  0.333333      4.000000
  0.166667  0.166667  0.333333      4.000000
  0.333333  0.166667  0.333333      8.000000
  0.500000  0.166667  0.333333      8.000000
 -0.333333  0.166667  0.333333      8.000000
 -0.166667  0.166667  0.333333      4.000000
  0.333333  0.333333  0.333333      4.000000
  0.500000  0.333333  0.333333      8.000000
 -0.333333  0.333333  0.333333      4.000000
  0.500000  0.500000  0.333333      2.000000
 
 Following cartesian coordinates:
            Coordinates               Weight
  0.000000  0.000000  0.000000      1.000000
  0.030474  0.000000  0.000000      4.000000
  0.060948  0.000000  0.000000      4.000000
  0.091422  0.000000  0.000000      2.000000
  0.030474  0.030474  0.000000      4.000000
  0.060948  0.030474  0.000000      8.000000
  0.091422  0.030474  0.000000      4.000000
  0.060948  0.060948  0.000000      4.000000
  0.091422  0.060948  0.000000      4.000000
  0.091422  0.091422  0.000000      1.000000
  0.000000  0.000000  0.033961      2.000000
  0.030474  0.000000  0.033961      8.000000
  0.060948  0.000000  0.033961      8.000000
  0.091422  0.000000  0.033961      4.000000
  0.030474  0.030474  0.033961      4.000000
  0.060948  0.030474  0.033961      8.000000
  0.091422  0.030474  0.033961      8.000000
 -0.060948  0.030474  0.033961      8.000000
 -0.030474  0.030474  0.033961      4.000000
  0.060948  0.060948  0.033961      4.000000
  0.091422  0.060948  0.033961      8.000000
 -0.060948  0.060948  0.033961      4.000000
  0.091422  0.091422  0.033961      2.000000
 
 TETIRR: Found    274 inequivalent tetrahedra from      648


--------------------------------------------------------------------------------------------------------




 Dimension of arrays:
   k-points           NKPTS =     23   k-points in BZ     NKDIM =     23   number of bands    NBANDS=    208
   number of dos      NEDOS =    301   number of ions     NIONS =     16
   non local maximal  LDIM  =      6   non local SUM 2l+1 LMDIM =     18
   total plane-waves  NPLWV = 207360
   max r-space proj   IRMAX =      1   max aug-charges    IRDMAX=  22449
   dimension x,y,z NGX =    48 NGY =   48 NGZ =   90
   dimension x,y,z NGXF=    96 NGYF=   96 NGZF=  180
   support grid    NGXF=    96 NGYF=   96 NGZF=  180
   ions per type =               8   4   4
   NGX,Y,Z   is equivalent  to a cutoff of  14.59, 14.59, 15.24 a.u.
   NGXF,Y,Z  is equivalent  to a cutoff of  29.18, 29.18, 30.49 a.u.

 SYSTEM =  CuFeS2                                  
 POSCAR =  sm_isp_SD0310437-standardized_unitcell  

 Startparameter for this run:
   NWRITE =      2    write-flag & timer
   PREC   = accura    normal or accurate (medium, high low for compatibility)
   ISTART =      1    job   : 0-new  1-cont  2-samecut
   ICHARG =      1    charge: 1-file 2-atom 10-const
   ISPIN  =      1    spin polarized calculation?
   LNONCOLLINEAR =      T non collinear calculations
   LSORBIT =      F    spin-orbit coupling
   INIWAV =      1    electr: 0-lowe 1-rand  2-diag
   LASPH  =      T    aspherical Exc in radial PAW
   METAGGA=      F    non-selfconsistent MetaGGA calc.

 Electronic Relaxation 1
   ENCUT  =  700.0 eV  51.45 Ry    7.17 a.u.  11.80 11.80 21.17*2*pi/ulx,y,z
   ENINI  =  700.0     initial cutoff
   ENAUG  =  758.2 eV  augmentation charge cutoff
   NELM   =    200;   NELMIN=  2; NELMDL=  0     # of ELM steps 
   EDIFF  = 0.1E-07   stopping-criterion for ELM
   LREAL  =      F    real-space projection
   NLSPLINE    = F    spline interpolate recip. space projectors
   LCOMPAT=      F    compatible to vasp.4.4
   GGA_COMPAT  = T    GGA compatible to vasp.4.4-vasp.4.6
   LMAXPAW     = -100 max onsite density
   LMAXMIX     =    4 max onsite mixed and CHGCAR
   VOSKOWN=      0    Vosko Wilk Nusair interpolation
   ROPT   =    0.00000   0.00000   0.00000
 Ionic relaxation
   EDIFFG = -.1E-04   stopping-criterion for IOM
   NSW    =      0    number of steps for IOM
   NBLOCK =      1;   KBLOCK =      1    inner block; outer block 
   IBRION =     -1    ionic relax: 0-MD 1-quasi-New 2-CG
   NFREE  =      0    steps in history (QN), initial steepest desc. (CG)
   ISIF   =      2    stress and relaxation
   IWAVPR =     10    prediction:  0-non 1-charg 2-wave 3-comb
   ISYM   =      1    0-nonsym 1-usesym 2-fastsym
   LCORR  =      T    Harris-Foulkes like correction to forces

   POTIM  = 0.1000    time-step for ionic-motion
   TEIN   =    0.0    initial temperature
   TEBEG  =    0.0;   TEEND  =   0.0 temperature during run
   SMASS  =  -3.00    Nose mass-parameter (am)
   estimated Nose-frequenzy (Omega)   =  0.10E-29 period in steps =****** mass=  -0.684E-27a.u.
   SCALEE = 1.0000    scale energy and forces
   NPACO  =    256;   APACO  = 16.0  distance and # of slots for P.C.
   PSTRESS=    0.0 pullay stress

  Mass of Ions in am
   POMASS =  32.07 63.55 55.85
  Ionic Valenz
   ZVAL   =   6.00 17.00 14.00
  Atomic Wigner-Seitz radii
   RWIGS  =  -1.00 -1.00 -1.00
  virtual crystal weights 
   VCA    =   1.00  1.00  1.00
   NELECT =     172.0000    total number of electrons
   NUPDOWN=      -1.0000    fix difference up-down

 DOS related values:
   EMIN   =  10.00;   EMAX   =-10.00  energy-range for DOS
   EFERMI =   0.00
   ISMEAR =    -5;   SIGMA  =   0.03  broadening in eV -4-tet -1-fermi 0-gaus

 Electronic relaxation 2 (details)
   IALGO  =     58    algorithm
   LDIAG  =      T    sub-space diagonalisation (order eigenvalues)
   LSUBROT=      F    optimize rotation matrix (better conditioning)
   TURBO    =      0    0=normal 1=particle mesh
   IRESTART =      0    0=no restart 2=restart with 2 vectors
   NREBOOT  =      0    no. of reboots
   NMIN     =      0    reboot dimension
   EREF     =   0.00    reference energy to select bands
   IMIX   =      4    mixing-type and parameters
     AMIX     =   0.40;   BMIX     =  1.00
     AMIX_MAG =   1.60;   BMIX_MAG =  1.00
     AMIN     =   0.10
     WC   =   100.;   INIMIX=   1;  MIXPRE=   1;  MAXMIX= -45

 Intra band minimization:
   WEIMIN = 0.0000     energy-eigenvalue tresh-hold
   EBREAK =  0.12E-10  absolut break condition
   DEPER  =   0.30     relativ break condition  

   TIME   =   0.40     timestep for ELM

  volume/ion in A,a.u.               =      18.35       123.83
  Fermi-wavevector in a.u.,A,eV,Ry     =   1.369849  2.588640 25.531152  1.876487
  Thomas-Fermi vector in A             =   2.495688
 
 Write flags
   LWAVE        =      T    write WAVECAR
   LDOWNSAMPLE  =      F    k-point downsampling of WAVECAR
   LCHARG       =      T    write CHGCAR
   LVTOT        =      F    write LOCPOT, total local potential
   LVHAR        =      F    write LOCPOT, Hartree potential only
   LELF         =      F    write electronic localiz. function (ELF)
   LORBIT       =     11    0 simple, 1 ext, 2 COOP (PROOUT), +10 PAW based schemes


 Dipole corrections
   LMONO  =      F    monopole corrections only (constant potential shift)
   LDIPOL =      F    correct potential (dipole corrections)
   IDIPOL =      0    1-x, 2-y, 3-z, 4-all directions 
   EPSILON=  1.0000000 bulk dielectric constant

 LDA+U is selected, type is set to LDAUTYPE =  2
   angular momentum for each species LDAUL =     2    2    2
   U (eV)           for each species LDAUU =   0.0  0.1  4.7
   J (eV)           for each species LDAUJ =   0.0  0.0  0.0
 Exchange correlation treatment:
   GGA     =    PS    GGA type
   LEXCH   =    14    internal setting for exchange type
   VOSKOWN=      0    Vosko Wilk Nusair interpolation
   LHFCALC =     F    Hartree Fock is set to
   LHFONE  =     F    Hartree Fock one center treatment
   AEXX    =    0.0000 exact exchange contribution

 Linear response parameters
   LEPSILON=     F    determine dielectric tensor
   LRPA    =     F    only Hartree local field effects (RPA)
   LNABLA  =     F    use nabla operator in PAW spheres
   LVEL    =     F    velocity operator in full k-point grid
   LINTERFAST=   F  fast interpolation
   KINTER  =     0    interpolate to denser k-point grid
   CSHIFT  =0.1000    complex shift for real part using Kramers Kronig
   OMEGAMAX=  -1.0    maximum frequency
   DEG_THRESHOLD= 0.2000000E-02 threshold for treating states as degnerate
   RTIME   =   -0.100 relaxation time in fs
  (WPLASMAI=    0.000 imaginary part of plasma frequency in eV, 0.658/RTIME)
   DFIELD  = 0.0000000 0.0000000 0.0000000 field for delta impulse in time
 
 Orbital magnetization related:
   ORBITALMAG=     F  switch on orbital magnetization
   LCHIMAG   =     F  perturbation theory with respect to B field
   DQ        =  0.001000  dq finite difference perturbation B field
   LLRAUG    =     F  two centre corrections for induced B field



--------------------------------------------------------------------------------------------------------


 Static calculation
 charge density and potential will be updated during run
 non collinear spin polarized calculation
 Conjugate gradient for all bands (Freysoldt, et al. PRB 79, 241103 (2009))
 preconditioned conjugated gradient                                        
 perform sub-space diagonalisation
    before iterative eigenvector-optimisation
 modified Broyden-mixing scheme, WC =      100.0
 initial mixing is a Kerker type mixing with AMIX =  0.4000 and BMIX =      1.0000
 Hartree-type preconditioning will be used
 using additional bands          122
 reciprocal scheme for non local part
 use partial core corrections
 no Harris-corrections to forces 
 use gradient corrections 
 use of overlap-Matrix (Vanderbilt PP)
 Fermi weights with tetrahedron method with Bloechl corrections


--------------------------------------------------------------------------------------------------------


  energy-cutoff  :      700.00
  volume of cell :      293.59
      direct lattice vectors                 reciprocal lattice vectors
     5.469137082  0.000000000  0.000000000     0.182844201  0.000000000  0.000000000
     0.000000000  5.469137082  0.000000000     0.000000000  0.182844201  0.000000000
     0.000000000  0.000000000  9.815153088     0.000000000  0.000000000  0.101883281

  length of vectors
     5.469137082  5.469137082  9.815153088     0.182844201  0.182844201  0.101883281


 
 old parameters found on file WAVECAR:
  energy-cutoff  :      700.00
  volume of cell :      293.64
      direct lattice vectors                 reciprocal lattice vectors
     5.469137082  0.000000000  0.000000000     0.182844201  0.000000000  0.000000000
     0.000000000  5.469137082  0.000000000     0.000000000  0.182844201  0.000000000
     0.000000000  0.000000000  9.816863208     0.000000000  0.000000000  0.101865533

  length of vectors

 
 k-points in units of 2pi/SCALE and weight: Automatic mesh                          
   0.00000000  0.00000000  0.00000000       0.009
   0.03047403  0.00000000  0.00000000       0.037
   0.06094807  0.00000000  0.00000000       0.037
   0.09142210  0.00000000  0.00000000       0.019
   0.03047403  0.03047403  0.00000000       0.037
   0.06094807  0.03047403  0.00000000       0.074
   0.09142210  0.03047403  0.00000000       0.037
   0.06094807  0.06094807  0.00000000       0.037
   0.09142210  0.06094807  0.00000000       0.037
   0.09142210  0.09142210  0.00000000       0.009
   0.00000000  0.00000000  0.03396109       0.019
   0.03047403  0.00000000  0.03396109       0.074
   0.06094807  0.00000000  0.03396109       0.074
   0.09142210  0.00000000  0.03396109       0.037
   0.03047403  0.03047403  0.03396109       0.037
   0.06094807  0.03047403  0.03396109       0.074
   0.09142210  0.03047403  0.03396109       0.074
  -0.06094807  0.03047403  0.03396109       0.074
  -0.03047403  0.03047403  0.03396109       0.037
   0.06094807  0.06094807  0.03396109       0.037
   0.09142210  0.06094807  0.03396109       0.074
  -0.06094807  0.06094807  0.03396109       0.037
   0.09142210  0.09142210  0.03396109       0.019
 
 k-points in reciprocal lattice and weights: Automatic mesh                          
   0.00000000  0.00000000  0.00000000       0.009
   0.16666667  0.00000000  0.00000000       0.037
   0.33333333  0.00000000  0.00000000       0.037
   0.50000000  0.00000000  0.00000000       0.019
   0.16666667  0.16666667  0.00000000       0.037
   0.33333333  0.16666667  0.00000000       0.074
   0.50000000  0.16666667  0.00000000       0.037
   0.33333333  0.33333333  0.00000000       0.037
   0.50000000  0.33333333  0.00000000       0.037
   0.50000000  0.50000000  0.00000000       0.009
   0.00000000  0.00000000  0.33333333       0.019
   0.16666667  0.00000000  0.33333333       0.074
   0.33333333  0.00000000  0.33333333       0.074
   0.50000000  0.00000000  0.33333333       0.037
   0.16666667  0.16666667  0.33333333       0.037
   0.33333333  0.16666667  0.33333333       0.074
   0.50000000  0.16666667  0.33333333       0.074
  -0.33333333  0.16666667  0.33333333       0.074
  -0.16666667  0.16666667  0.33333333       0.037
   0.33333333  0.33333333  0.33333333       0.037
   0.50000000  0.33333333  0.33333333       0.074
  -0.33333333  0.33333333  0.33333333       0.037
   0.50000000  0.50000000  0.33333333       0.019
 
 position of ions in fractional coordinates (direct lattice) 
   0.25123842  0.25000000  0.12500000
   0.74876161  0.75000000  0.12500000
   0.25000000  0.74876161  0.87500000
   0.75000000  0.25123842  0.87500000
   0.24876158  0.25000000  0.62500000
   0.75123839  0.75000000  0.62500000
   0.75000000  0.24876158  0.37500000
   0.25000000  0.75123839  0.37500000
   0.00000000  0.00000000  0.50000000
   0.50000000  0.00000000  0.25000000
   0.50000000  0.50000000  0.00000000
   0.00000000  0.50000000  0.75000000
   0.00000000  0.00000000  0.00000000
   0.50000000  0.00000000  0.75000000
   0.50000000  0.50000000  0.50000000
   0.00000000  0.50000000  0.25000000
 
 position of ions in cartesian coordinates  (Angst):
   1.37405734  1.36728427  1.22689414
   4.09507990  4.10185281  1.22689414
   1.36728427  4.09507990  8.58825895
   4.10185281  1.37405734  8.58825895
   1.36051120  1.36728427  6.13447068
   4.10862572  4.10185281  6.13447068
   4.10185281  1.36051120  3.68068241
   1.36728427  4.10862572  3.68068241
   0.00000000  0.00000000  4.90757654
   2.73456854  0.00000000  2.45378827
   2.73456854  2.73456854  0.00000000
   0.00000000  2.73456854  7.36136482
   0.00000000  0.00000000  0.00000000
   2.73456854  0.00000000  7.36136482
   2.73456854  2.73456854  4.90757654
   0.00000000  2.73456854  2.45378827
 
 Euler angles ALPHA=     0.0000000  BETA=     0.0000000

 transformation matrix from SAXIS to cartesian coordinates
 ---------------------------------------------------------
     1.0000000 m_x     0.0000000 m_y     0.0000000 m_z
     0.0000000 m_x     1.0000000 m_y     0.0000000 m_z
     0.0000000 m_x     0.0000000 m_y     1.0000000 m_z

 transformation matrix from cartesian coordinates to SAXIS
 ---------------------------------------------------------
     1.0000000 m_x     0.0000000 m_y     0.0000000 m_z
     0.0000000 m_x     1.0000000 m_y     0.0000000 m_z
     0.0000000 m_x     0.0000000 m_y     1.0000000 m_z




--------------------------------------------------------------------------------------------------------


 k-point  1 :   0.0000 0.0000 0.0000  plane waves:   24718
 k-point  2 :   0.1667 0.0000 0.0000  plane waves:   24662
 k-point  3 :   0.3333 0.0000 0.0000  plane waves:   24688
 k-point  4 :   0.5000 0.0000 0.0000  plane waves:   24736
 k-point  5 :   0.1667 0.1667 0.0000  plane waves:   24674
 k-point  6 :   0.3333 0.1667 0.0000  plane waves:   24672
 k-point  7 :   0.5000 0.1667 0.0000  plane waves:   24720
 k-point  8 :   0.3333 0.3333 0.0000  plane waves:   24722
 k-point  9 :   0.5000 0.3333 0.0000  plane waves:   24744
 k-point 10 :   0.5000 0.5000 0.0000  plane waves:   24688
 k-point 11 :   0.0000 0.0000 0.3333  plane waves:   24724
 k-point 12 :   0.1667 0.0000 0.3333  plane waves:   24684
 k-point 13 :   0.3333 0.0000 0.3333  plane waves:   24668
 k-point 14 :   0.5000 0.0000 0.3333  plane waves:   24648
 k-point 15 :   0.1667 0.1667 0.3333  plane waves:   24662
 k-point 16 :   0.3333 0.1667 0.3333  plane waves:   24718
 k-point 17 :   0.5000 0.1667 0.3333  plane waves:   24684
 k-point 18 :  -0.3333 0.1667 0.3333  plane waves:   24718
 k-point 19 :  -0.1667 0.1667 0.3333  plane waves:   24662
 k-point 20 :   0.3333 0.3333 0.3333  plane waves:   24708
 k-point 21 :   0.5000 0.3333 0.3333  plane waves:   24720
 k-point 22 :  -0.3333 0.3333 0.3333  plane waves:   24708
 k-point 23 :   0.5000 0.5000 0.3333  plane waves:   24672

 maximum and minimum number of plane-waves per node :       810      736

 maximum number of plane-waves:     24744
 maximum index in each direction: 
   IXMAX=   12   IYMAX=   11   IZMAX=   21
   IXMIN=  -12   IYMIN=  -12   IZMIN=  -21


 parallel 3D FFT for wavefunctions:
    minimum data exchange during FFTs selected (reduces bandwidth)
 parallel 3D FFT for charge:
    minimum data exchange during FFTs selected (reduces bandwidth)


 total amount of memory used by VASP MPI-rank0    65368. kBytes
=======================================================================

   base      :      30000. kBytes
   nonl-proj :       4076. kBytes
   fftplans  :       1362. kBytes
   grid      :       5529. kBytes
   one-center:         62. kBytes
   wavefun   :      24339. kBytes
 
     INWAV:  cpu time    5.7322: real time    5.8413
 Broyden mixing: mesh for mixing (old mesh)
   NGX = 23   NGY = 23   NGZ = 43
  (NGX  = 96   NGY  = 96   NGZ  =180)
  gives a total of  22747 points

 initial charge density was supplied:
 number of electron     171.9999972 magnetization       0.0000000      0.0000000     -0.0000000
 charge density for first step will be calculated from the start-wavefunctions


--------------------------------------------------------------------------------------------------------


 BZINTS: Fermi energy:  4.667609;172.000000 electrons
         Band energy:***********;  BLOECHL correction:  0.000000
 Maximum index for augmentation-charges          911 (set IRDMAX)


--------------------------------------------------------------------------------------------------------


 initial charge from wavefunction
 First call to EWALD:  gamma=   0.267
 Maximum number of real-space cells 3x 3x 2
 Maximum number of reciprocal cells 2x 2x 4

    FEWALD:  cpu time    0.0169: real time    0.0169

 ----------------------------------------------------------------------------- 
|                                                                             |
|           W    W    AA    RRRRR   N    N  II  N    N   GGGG   !!!           |
|           W    W   A  A   R    R  NN   N  II  NN   N  G    G  !!!           |
|           W    W  A    A  R    R  N N  N  II  N N  N  G       !!!           |
|           W WW W  AAAAAA  RRRRR   N  N N  II  N  N N  G  GGG   !            |
|           WW  WW  A    A  R   R   N   NN  II  N   NN  G    G                |
|           W    W  A    A  R    R  N    N  II  N    N   GGGG   !!!           |
|                                                                             |
|      ALGO=A and IALGO=5X tend to fail with the tetrahedron method           |
|      (e.g. Bloechls method ISMEAR=-5 is not variational)                    |
|      please switch to IMSEAR=0-n, except for DOS calculations               |
|      For DOS calculations use IALGO=53 after preconverging with ISMEAR>=0   |
|          I HOPE YOU KNOW, WHAT YOU ARE  DOING                               |
|                                                                             |
 ----------------------------------------------------------------------------- 



--------------------------------------- Iteration      1(   1)  ---------------------------------------


    POTLOK:  cpu time    0.0976: real time    0.0978
    SETDIJ:  cpu time    0.6330: real time    0.6332
    TRIAL :  cpu time    4.2644: real time    4.2925
 BZINTS: Fermi energy:  4.667608;172.000000 electrons
         Band energy:***********;  BLOECHL correction:  0.000000
 BZINTS: Fermi energy:  4.667609;172.000000 electrons
         Band energy:***********;  BLOECHL correction:  0.000000
    CORREC:  cpu time    3.2857: real time    3.2879
    CHARGE:  cpu time    1.0275: real time    1.0275
    --------------------------------------------
      LOOP:  cpu time    9.3165: real time    9.4052

 eigenvalue-minimisations  :     0
 total energy-change (2. order) :-0.8185303E+02  (-0.5066154E-09)
 number of electron     171.9999972 magnetization       0.0000000      0.0000000      0.0000000
 augmentation part       70.5805140 magnetization       0.0000001     -0.0000002     -0.0001282

 Free energy of the ion-electron system (eV)
  ---------------------------------------------------
  alpha Z        PSCENC =       577.16362915
  Ewald energy   TEWEN  =    -15530.62694218
  -Hartree energ DENC   =    -10789.29469101
  -exchange      EXHF   =         0.00000000
  -V(xc)+E(xc)   XCENC  =       820.84378167
  PAW double counting   =     27817.32204290   -28739.47885048
  entropy T*S    EENTRO =         0.00000000
  eigenvalues    EBANDS =     -2742.79827983
  atomic energy  EATOM  =     28505.01627691
  ---------------------------------------------------
  free energy    TOTEN  =       -81.85303288 eV

  energy without entropy =      -81.85303288  energy(sigma->0) =      -81.85303288


--------------------------------------------------------------------------------------------------------




--------------------------------------- Iteration      1(   2)  ---------------------------------------


    POTLOK:  cpu time    0.0956: real time    0.0956
    SETDIJ:  cpu time    0.6382: real time    0.6382
    TRIAL :  cpu time    2.9120: real time    2.9143
 BZINTS: Fermi energy:  4.667608;172.000000 electrons
         Band energy:***********;  BLOECHL correction:  0.000000
 BZINTS: Fermi energy:  4.667608;172.000000 electrons
         Band energy:***********;  BLOECHL correction:  0.000000
    CORREC:  cpu time    3.2845: real time    3.2867
    CHARGE:  cpu time    1.0272: real time    1.0272
    --------------------------------------------
      LOOP:  cpu time    7.9745: real time    7.9806

 eigenvalue-minimisations  :     0
 total energy-change (2. order) :-0.1512435E-06  (-0.4231130E-09)
 number of electron     171.9999972 magnetization       0.0000000      0.0000000      0.0000000
 augmentation part       70.5805140 magnetization       0.0000001     -0.0000002     -0.0001282

 Free energy of the ion-electron system (eV)
  ---------------------------------------------------
  alpha Z        PSCENC =       577.16362915
  Ewald energy   TEWEN  =    -15530.62694218
  -Hartree energ DENC   =    -10789.29468995
  -exchange      EXHF   =         0.00000000
  -V(xc)+E(xc)   XCENC  =       820.84378132
  PAW double counting   =     27817.32203843   -28739.47884602
  entropy T*S    EENTRO =         0.00000000
  eigenvalues    EBANDS =     -2742.79828068
  atomic energy  EATOM  =     28505.01627691
  ---------------------------------------------------
  free energy    TOTEN  =       -81.85303303 eV

  energy without entropy =      -81.85303303  energy(sigma->0) =      -81.85303303


--------------------------------------------------------------------------------------------------------




--------------------------------------- Iteration      1(   3)  ---------------------------------------


    POTLOK:  cpu time    0.0962: real time    0.0962
    SETDIJ:  cpu time    0.6371: real time    0.6371
    TRIAL :  cpu time    2.9162: real time    2.9184
 BZINTS: Fermi energy:  4.667608;172.000000 electrons
         Band energy:***********;  BLOECHL correction:  0.000000
 BZINTS: Fermi energy:  4.667608;172.000000 electrons
         Band energy:***********;  BLOECHL correction:  0.000000
    CORREC:  cpu time    3.2881: real time    3.2902
    CHARGE:  cpu time    1.0361: real time    1.0361
    --------------------------------------------
      LOOP:  cpu time    7.9915: real time    7.9997

 eigenvalue-minimisations  :     0
 total energy-change (2. order) :-0.1296212E-06  (-0.3580844E-09)
 number of electron     171.9999972 magnetization       0.0000000     -0.0000000     -0.0000000
 augmentation part       70.5805140 magnetization       0.0000001     -0.0000002     -0.0001282

 Free energy of the ion-electron system (eV)
  ---------------------------------------------------
  alpha Z        PSCENC =       577.16362915
  Ewald energy   TEWEN  =    -15530.62694218
  -Hartree energ DENC   =    -10789.29468896
  -exchange      EXHF   =         0.00000000
  -V(xc)+E(xc)   XCENC  =       820.84378101
  PAW double counting   =     27817.32203444   -28739.47884203
  entropy T*S    EENTRO =         0.00000000
  eigenvalues    EBANDS =     -2742.79828150
  atomic energy  EATOM  =     28505.01627691
  ---------------------------------------------------
  free energy    TOTEN  =       -81.85303316 eV

  energy without entropy =      -81.85303316  energy(sigma->0) =      -81.85303316


--------------------------------------------------------------------------------------------------------




--------------------------------------- Iteration      1(   4)  ---------------------------------------


    POTLOK:  cpu time    0.0976: real time    0.0976
    SETDIJ:  cpu time    0.6372: real time    0.6372
    TRIAL :  cpu time    2.8965: real time    2.8988
 BZINTS: Fermi energy:  4.667608;172.000000 electrons
         Band energy:***********;  BLOECHL correction:  0.000000
 BZINTS: Fermi energy:  4.667608;172.000000 electrons
         Band energy:***********;  BLOECHL correction:  0.000000
    CORREC:  cpu time    3.2874: real time    3.2896
    CHARGE:  cpu time    1.0316: real time    1.0316
    --------------------------------------------
      LOOP:  cpu time    7.9666: real time    7.9742

 eigenvalue-minimisations  :     0
 total energy-change (2. order) :-0.1122462E-06  (-0.3068632E-09)
 number of electron     171.9999972 magnetization       0.0000000      0.0000000      0.0000000
 augmentation part       70.5805140 magnetization       0.0000001     -0.0000002     -0.0001282

 Free energy of the ion-electron system (eV)
  ---------------------------------------------------
  alpha Z        PSCENC =       577.16362915
  Ewald energy   TEWEN  =    -15530.62694218
  -Hartree energ DENC   =    -10789.29468805
  -exchange      EXHF   =         0.00000000
  -V(xc)+E(xc)   XCENC  =       820.84378075
  PAW double counting   =     27817.32203086   -28739.47883842
  entropy T*S    EENTRO =         0.00000000
  eigenvalues    EBANDS =     -2742.79828228
  atomic energy  EATOM  =     28505.01627691
  ---------------------------------------------------
  free energy    TOTEN  =       -81.85303327 eV

  energy without entropy =      -81.85303327  energy(sigma->0) =      -81.85303327


--------------------------------------------------------------------------------------------------------




--------------------------------------- Iteration      1(   5)  ---------------------------------------


    POTLOK:  cpu time    0.0954: real time    0.0954
    SETDIJ:  cpu time    0.6393: real time    0.6393
    TRIAL :  cpu time    2.9090: real time    2.9113
 BZINTS: Fermi energy:  4.667608;172.000000 electrons
         Band energy:***********;  BLOECHL correction:  0.000000
 BZINTS: Fermi energy:  4.667608;172.000000 electrons
         Band energy:***********;  BLOECHL correction:  0.000000
    CORREC:  cpu time    3.2861: real time    3.2883
    CHARGE:  cpu time    1.0290: real time    1.0290
    --------------------------------------------
      LOOP:  cpu time    7.9747: real time    7.9824

 eigenvalue-minimisations  :     0
 total energy-change (2. order) :-0.9817450E-07  (-0.2660943E-09)
 number of electron     171.9999972 magnetization       0.0000000      0.0000000     -0.0000000
 augmentation part       70.5805140 magnetization       0.0000001     -0.0000002     -0.0001282

 Free energy of the ion-electron system (eV)
  ---------------------------------------------------
  alpha Z        PSCENC =       577.16362915
  Ewald energy   TEWEN  =    -15530.62694218
  -Hartree energ DENC   =    -10789.29468719
  -exchange      EXHF   =         0.00000000
  -V(xc)+E(xc)   XCENC  =       820.84378052
  PAW double counting   =     27817.32202762   -28739.47883515
  entropy T*S    EENTRO =         0.00000000
  eigenvalues    EBANDS =     -2742.79828303
  atomic energy  EATOM  =     28505.01627691
  ---------------------------------------------------
  free energy    TOTEN  =       -81.85303337 eV

  energy without entropy =      -81.85303337  energy(sigma->0) =      -81.85303337


--------------------------------------------------------------------------------------------------------




--------------------------------------- Iteration      1(   6)  ---------------------------------------


    POTLOK:  cpu time    0.0963: real time    0.0963
    SETDIJ:  cpu time    0.6367: real time    0.6367
    TRIAL :  cpu time    2.8950: real time    2.8973
 BZINTS: Fermi energy:  4.667608;172.000000 electrons
         Band energy:***********;  BLOECHL correction:  0.000000
 BZINTS: Fermi energy:  4.667608;172.000000 electrons
         Band energy:***********;  BLOECHL correction:  0.000000
    CORREC:  cpu time    3.2881: real time    3.2903
    CHARGE:  cpu time    1.0313: real time    1.0313
    --------------------------------------------
      LOOP:  cpu time    7.9659: real time    7.9725

 eigenvalue-minimisations  :     0
 total energy-change (2. order) :-0.8671668E-07  (-0.2333278E-09)
 number of electron     171.9999972 magnetization       0.0000000      0.0000000     -0.0000000
 augmentation part       70.5805140 magnetization       0.0000001     -0.0000002     -0.0001282

 Free energy of the ion-electron system (eV)
  ---------------------------------------------------
  alpha Z        PSCENC =       577.16362915
  Ewald energy   TEWEN  =    -15530.62694218
  -Hartree energ DENC   =    -10789.29468639
  -exchange      EXHF   =         0.00000000
  -V(xc)+E(xc)   XCENC  =       820.84378031
  PAW double counting   =     27817.32202467   -28739.47883217
  entropy T*S    EENTRO =         0.00000000
  eigenvalues    EBANDS =     -2742.79828375
  atomic energy  EATOM  =     28505.01627691
  ---------------------------------------------------
  free energy    TOTEN  =       -81.85303345 eV

  energy without entropy =      -81.85303345  energy(sigma->0) =      -81.85303345


--------------------------------------------------------------------------------------------------------




--------------------------------------- Iteration      1(   7)  ---------------------------------------


    POTLOK:  cpu time    0.0974: real time    0.0974
    SETDIJ:  cpu time    0.6361: real time    0.6361
    TRIAL :  cpu time    2.9003: real time    2.9025
 BZINTS: Fermi energy:  4.667608;172.000000 electrons
         Band energy:***********;  BLOECHL correction:  0.000000
 BZINTS: Fermi energy:  4.667608;172.000000 electrons
         Band energy:***********;  BLOECHL correction:  0.000000
    CORREC:  cpu time    3.2875: real time    3.2897
    CHARGE:  cpu time    1.0289: real time    1.0289
    --------------------------------------------
      LOOP:  cpu time    7.9674: real time    7.9757

 eigenvalue-minimisations  :     0
 total energy-change (2. order) :-0.7735252E-07  (-0.2067862E-09)
 number of electron     171.9999972 magnetization       0.0000000      0.0000000      0.0000000
 augmentation part       70.5805140 magnetization       0.0000001     -0.0000002     -0.0001282

 Free energy of the ion-electron system (eV)
  ---------------------------------------------------
  alpha Z        PSCENC =       577.16362915
  Ewald energy   TEWEN  =    -15530.62694218
  -Hartree energ DENC   =    -10789.29468564
  -exchange      EXHF   =         0.00000000
  -V(xc)+E(xc)   XCENC  =       820.84378012
  PAW double counting   =     27817.32202196   -28739.47882943
  entropy T*S    EENTRO =         0.00000000
  eigenvalues    EBANDS =     -2742.79828442
  atomic energy  EATOM  =     28505.01627691
  ---------------------------------------------------
  free energy    TOTEN  =       -81.85303353 eV

  energy without entropy =      -81.85303353  energy(sigma->0) =      -81.85303353


--------------------------------------------------------------------------------------------------------




--------------------------------------- Iteration      1(   8)  ---------------------------------------


    POTLOK:  cpu time    0.0971: real time    0.0971
    SETDIJ:  cpu time    0.6381: real time    0.6381
    TRIAL :  cpu time    2.9005: real time    2.9028
 BZINTS: Fermi energy:  4.667608;172.000000 electrons
         Band energy:***********;  BLOECHL correction:  0.000000
 BZINTS: Fermi energy:  4.667608;172.000000 electrons
         Band energy:***********;  BLOECHL correction:  0.000000
    CORREC:  cpu time    3.2838: real time    3.2860
    CHARGE:  cpu time    1.0313: real time    1.0314
    --------------------------------------------
      LOOP:  cpu time    7.9674: real time    7.9757

 eigenvalue-minimisations  :     0
 total energy-change (2. order) :-0.6964365E-07  (-0.1851570E-09)
 number of electron     171.9999972 magnetization       0.0000000     -0.0000000      0.0000000
 augmentation part       70.5805140 magnetization       0.0000001     -0.0000002     -0.0001282

 Free energy of the ion-electron system (eV)
  ---------------------------------------------------
  alpha Z        PSCENC =       577.16362915
  Ewald energy   TEWEN  =    -15530.62694218
  -Hartree energ DENC   =    -10789.29468493
  -exchange      EXHF   =         0.00000000
  -V(xc)+E(xc)   XCENC  =       820.84377995
  PAW double counting   =     27817.32201946   -28739.47882689
  entropy T*S    EENTRO =         0.00000000
  eigenvalues    EBANDS =     -2742.79828507
  atomic energy  EATOM  =     28505.01627691
  ---------------------------------------------------
  free energy    TOTEN  =       -81.85303360 eV

  energy without entropy =      -81.85303360  energy(sigma->0) =      -81.85303360


--------------------------------------------------------------------------------------------------------




--------------------------------------- Iteration      1(   9)  ---------------------------------------


    POTLOK:  cpu time    0.0965: real time    0.0965
    SETDIJ:  cpu time    0.6381: real time    0.6381
    TRIAL :  cpu time    2.9000: real time    2.9022
 BZINTS: Fermi energy:  4.667608;172.000000 electrons
         Band energy:***********;  BLOECHL correction:  0.000000
 BZINTS: Fermi energy:  4.667608;172.000000 electrons
         Band energy:***********;  BLOECHL correction:  0.000000
    CORREC:  cpu time    3.2921: real time    3.2943
    CHARGE:  cpu time    1.0359: real time    1.0359
    --------------------------------------------
      LOOP:  cpu time    7.9783: real time    7.9865

 eigenvalue-minimisations  :     0
 total energy-change (2. order) :-0.6326627E-07  (-0.1676040E-09)
 number of electron     171.9999972 magnetization       0.0000000      0.0000000      0.0000000
 augmentation part       70.5805140 magnetization       0.0000001     -0.0000002     -0.0001282

 Free energy of the ion-electron system (eV)
  ---------------------------------------------------
  alpha Z        PSCENC =       577.16362915
  Ewald energy   TEWEN  =    -15530.62694218
  -Hartree energ DENC   =    -10789.29468426
  -exchange      EXHF   =         0.00000000
  -V(xc)+E(xc)   XCENC  =       820.84377980
  PAW double counting   =     27817.32201715   -28739.47882453
  entropy T*S    EENTRO =         0.00000000
  eigenvalues    EBANDS =     -2742.79828569
  atomic energy  EATOM  =     28505.01627691
  ---------------------------------------------------
  free energy    TOTEN  =       -81.85303366 eV

  energy without entropy =      -81.85303366  energy(sigma->0) =      -81.85303366


--------------------------------------------------------------------------------------------------------




--------------------------------------- Iteration      1(  10)  ---------------------------------------


    POTLOK:  cpu time    0.0976: real time    0.0976
    SETDIJ:  cpu time    0.6374: real time    0.6374
    TRIAL :  cpu time    2.8986: real time    2.9008
 BZINTS: Fermi energy:  4.667608;172.000000 electrons
         Band energy:***********;  BLOECHL correction:  0.000000
 BZINTS: Fermi energy:  4.667608;172.000000 electrons
         Band energy:***********;  BLOECHL correction:  0.000000
    CORREC:  cpu time    3.2920: real time    3.2942
    CHARGE:  cpu time    1.0377: real time    1.0377
    --------------------------------------------
      LOOP:  cpu time    7.9820: real time    7.9873

 eigenvalue-minimisations  :     0
 total energy-change (2. order) :-0.5811125E-07  (-0.1534997E-09)
 number of electron     171.9999972 magnetization      -0.0000000      0.0000000      0.0000000
 augmentation part       70.5805140 magnetization       0.0000001     -0.0000002     -0.0001282

 Free energy of the ion-electron system (eV)
  ---------------------------------------------------
  alpha Z        PSCENC =       577.16362915
  Ewald energy   TEWEN  =    -15530.62694218
  -Hartree energ DENC   =    -10789.29468362
  -exchange      EXHF   =         0.00000000
  -V(xc)+E(xc)   XCENC  =       820.84377966
  PAW double counting   =     27817.32201497   -28739.47882232
  entropy T*S    EENTRO =         0.00000000
  eigenvalues    EBANDS =     -2742.79828629
  atomic energy  EATOM  =     28505.01627691
  ---------------------------------------------------
  free energy    TOTEN  =       -81.85303372 eV

  energy without entropy =      -81.85303372  energy(sigma->0) =      -81.85303372


--------------------------------------------------------------------------------------------------------




--------------------------------------- Iteration      1(  11)  ---------------------------------------


    POTLOK:  cpu time    0.0976: real time    0.0976
    SETDIJ:  cpu time    0.6386: real time    0.6386
    TRIAL :  cpu time    2.9100: real time    2.9122
 BZINTS: Fermi energy:  4.667608;172.000000 electrons
         Band energy:***********;  BLOECHL correction:  0.000000
 BZINTS: Fermi energy:  4.667608;172.000000 electrons
         Band energy:***********;  BLOECHL correction:  0.000000
    CORREC:  cpu time    3.2854: real time    3.2876
    CHARGE:  cpu time    1.0328: real time    1.0327
    --------------------------------------------
      LOOP:  cpu time    7.9805: real time    7.9888

 eigenvalue-minimisations  :     0
 total energy-change (2. order) :-0.5394577E-07  (-0.1417068E-09)
 number of electron     171.9999972 magnetization       0.0000000      0.0000000      0.0000000
 augmentation part       70.5805140 magnetization       0.0000001     -0.0000002     -0.0001282

 Free energy of the ion-electron system (eV)
  ---------------------------------------------------
  alpha Z        PSCENC =       577.16362915
  Ewald energy   TEWEN  =    -15530.62694218
  -Hartree energ DENC   =    -10789.29468300
  -exchange      EXHF   =         0.00000000
  -V(xc)+E(xc)   XCENC  =       820.84377952
  PAW double counting   =     27817.32201292   -28739.47882022
  entropy T*S    EENTRO =         0.00000000
  eigenvalues    EBANDS =     -2742.79828687
  atomic energy  EATOM  =     28505.01627691
  ---------------------------------------------------
  free energy    TOTEN  =       -81.85303378 eV

  energy without entropy =      -81.85303378  energy(sigma->0) =      -81.85303378


--------------------------------------------------------------------------------------------------------




--------------------------------------- Iteration      1(  12)  ---------------------------------------


    POTLOK:  cpu time    0.0976: real time    0.0976
    SETDIJ:  cpu time    0.6377: real time    0.6377
    TRIAL :  cpu time    2.8936: real time    2.8958
 BZINTS: Fermi energy:  4.667608;172.000000 electrons
         Band energy:***********;  BLOECHL correction:  0.000000
 BZINTS: Fermi energy:  4.667608;172.000000 electrons
         Band energy:***********;  BLOECHL correction:  0.000000
    CORREC:  cpu time    3.3123: real time    3.3145
    CHARGE:  cpu time    1.0349: real time    1.0349
    --------------------------------------------
      LOOP:  cpu time    7.9932: real time    8.0009

 eigenvalue-minimisations  :     0
 total energy-change (2. order) :-0.5050424E-07  (-0.1305741E-09)
 number of electron     171.9999972 magnetization      -0.0000000      0.0000000      0.0000000
 augmentation part       70.5805140 magnetization       0.0000001     -0.0000002     -0.0001282

 Free energy of the ion-electron system (eV)
  ---------------------------------------------------
  alpha Z        PSCENC =       577.16362915
  Ewald energy   TEWEN  =    -15530.62694218
  -Hartree energ DENC   =    -10789.29468241
  -exchange      EXHF   =         0.00000000
  -V(xc)+E(xc)   XCENC  =       820.84377940
  PAW double counting   =     27817.32201096   -28739.47881822
  entropy T*S    EENTRO =         0.00000000
  eigenvalues    EBANDS =     -2742.79828743
  atomic energy  EATOM  =     28505.01627691
  ---------------------------------------------------
  free energy    TOTEN  =       -81.85303383 eV

  energy without entropy =      -81.85303383  energy(sigma->0) =      -81.85303383


--------------------------------------------------------------------------------------------------------




--------------------------------------- Iteration      1(  13)  ---------------------------------------


    POTLOK:  cpu time    0.0956: real time    0.0956
    SETDIJ:  cpu time    0.6368: real time    0.6369
    TRIAL :  cpu time    2.9093: real time    2.9116
 BZINTS: Fermi energy:  4.667608;172.000000 electrons
         Band energy:***********;  BLOECHL correction:  0.000000
 BZINTS: Fermi energy:  4.667608;172.000000 electrons
         Band energy:***********;  BLOECHL correction:  0.000000
    CORREC:  cpu time    3.2956: real time    3.2978
    CHARGE:  cpu time    1.0333: real time    1.0333
    --------------------------------------------
      LOOP:  cpu time    7.9872: real time    7.9946

 eigenvalue-minimisations  :     0
 total energy-change (2. order) :-0.4714275E-07  (-0.1208030E-09)
 number of electron     171.9999972 magnetization       0.0000000      0.0000000      0.0000000
 augmentation part       70.5805140 magnetization       0.0000001     -0.0000002     -0.0001282

 Free energy of the ion-electron system (eV)
  ---------------------------------------------------
  alpha Z        PSCENC =       577.16362915
  Ewald energy   TEWEN  =    -15530.62694218
  -Hartree energ DENC   =    -10789.29468185
  -exchange      EXHF   =         0.00000000
  -V(xc)+E(xc)   XCENC  =       820.84377928
  PAW double counting   =     27817.32200911   -28739.47881632
  entropy T*S    EENTRO =         0.00000000
  eigenvalues    EBANDS =     -2742.79828797
  atomic energy  EATOM  =     28505.01627691
  ---------------------------------------------------
  free energy    TOTEN  =       -81.85303387 eV

  energy without entropy =      -81.85303387  energy(sigma->0) =      -81.85303387


--------------------------------------------------------------------------------------------------------




--------------------------------------- Iteration      1(  14)  ---------------------------------------


    POTLOK:  cpu time    0.0984: real time    0.0984
    SETDIJ:  cpu time    0.6377: real time    0.6377
    TRIAL :  cpu time    2.8976: real time    2.8999
 BZINTS: Fermi energy:  4.667608;172.000000 electrons
         Band energy:***********;  BLOECHL correction:  0.000000
 BZINTS: Fermi energy:  4.667608;172.000000 electrons
         Band energy:***********;  BLOECHL correction:  0.000000
    CORREC:  cpu time    3.2902: real time    3.2924
    CHARGE:  cpu time    1.0315: real time    1.0315
    --------------------------------------------
      LOOP:  cpu time    7.9744: real time    7.9795

 eigenvalue-minimisations  :     0
 total energy-change (2. order) :-0.4418507E-07  (-0.1129121E-09)
 number of electron     171.9999972 magnetization       0.0000000      0.0000000      0.0000000
 augmentation part       70.5805140 magnetization       0.0000001     -0.0000002     -0.0001282

 Free energy of the ion-electron system (eV)
  ---------------------------------------------------
  alpha Z        PSCENC =       577.16362915
  Ewald energy   TEWEN  =    -15530.62694218
  -Hartree energ DENC   =    -10789.29468130
  -exchange      EXHF   =         0.00000000
  -V(xc)+E(xc)   XCENC  =       820.84377917
  PAW double counting   =     27817.32200734   -28739.47881451
  entropy T*S    EENTRO =         0.00000000
  eigenvalues    EBANDS =     -2742.79828849
  atomic energy  EATOM  =     28505.01627691
  ---------------------------------------------------
  free energy    TOTEN  =       -81.85303392 eV

  energy without entropy =      -81.85303392  energy(sigma->0) =      -81.85303392


--------------------------------------------------------------------------------------------------------




--------------------------------------- Iteration      1(  15)  ---------------------------------------


    POTLOK:  cpu time    0.1021: real time    0.1021
    SETDIJ:  cpu time    0.6388: real time    0.6388
    TRIAL :  cpu time    2.9034: real time    2.9057
 BZINTS: Fermi energy:  4.667608;172.000000 electrons
         Band energy:***********;  BLOECHL correction:  0.000000
 BZINTS: Fermi energy:  4.667608;172.000000 electrons
         Band energy:***********;  BLOECHL correction:  0.000000
    CORREC:  cpu time    3.2886: real time    3.2908
    CHARGE:  cpu time    1.0315: real time    1.0315
    --------------------------------------------
      LOOP:  cpu time    7.9799: real time    7.9885

 eigenvalue-minimisations  :     0
 total energy-change (2. order) :-0.4178219E-07  (-0.1065918E-09)
 number of electron     171.9999972 magnetization       0.0000000     -0.0000000      0.0000000
 augmentation part       70.5805140 magnetization       0.0000001     -0.0000002     -0.0001282

 Free energy of the ion-electron system (eV)
  ---------------------------------------------------
  alpha Z        PSCENC =       577.16362915
  Ewald energy   TEWEN  =    -15530.62694218
  -Hartree energ DENC   =    -10789.29468078
  -exchange      EXHF   =         0.00000000
  -V(xc)+E(xc)   XCENC  =       820.84377907
  PAW double counting   =     27817.32200565   -28739.47881278
  entropy T*S    EENTRO =         0.00000000
  eigenvalues    EBANDS =     -2742.79828900
  atomic energy  EATOM  =     28505.01627691
  ---------------------------------------------------
  free energy    TOTEN  =       -81.85303396 eV

  energy without entropy =      -81.85303396  energy(sigma->0) =      -81.85303396


--------------------------------------------------------------------------------------------------------




--------------------------------------- Iteration      1(  16)  ---------------------------------------


    POTLOK:  cpu time    0.0993: real time    0.0993
    SETDIJ:  cpu time    0.6377: real time    0.6377
    TRIAL :  cpu time    2.9042: real time    2.9065
 BZINTS: Fermi energy:  4.667608;172.000000 electrons
         Band energy:***********;  BLOECHL correction:  0.000000
 BZINTS: Fermi energy:  4.667608;172.000000 electrons
         Band energy:***********;  BLOECHL correction:  0.000000
    CORREC:  cpu time    3.2826: real time    3.2848
    CHARGE:  cpu time    1.0306: real time    1.0306
    --------------------------------------------
      LOOP:  cpu time    7.9718: real time    7.9791

 eigenvalue-minimisations  :     0
 total energy-change (2. order) :-0.4000321E-07  (-0.1015794E-09)
 number of electron     171.9999972 magnetization       0.0000000     -0.0000000      0.0000000
 augmentation part       70.5805140 magnetization       0.0000001     -0.0000002     -0.0001282

 Free energy of the ion-electron system (eV)
  ---------------------------------------------------
  alpha Z        PSCENC =       577.16362915
  Ewald energy   TEWEN  =    -15530.62694218
  -Hartree energ DENC   =    -10789.29468026
  -exchange      EXHF   =         0.00000000
  -V(xc)+E(xc)   XCENC  =       820.84377897
  PAW double counting   =     27817.32200402   -28739.47881110
  entropy T*S    EENTRO =         0.00000000
  eigenvalues    EBANDS =     -2742.79828950
  atomic energy  EATOM  =     28505.01627691
  ---------------------------------------------------
  free energy    TOTEN  =       -81.85303400 eV

  energy without entropy =      -81.85303400  energy(sigma->0) =      -81.85303400


--------------------------------------------------------------------------------------------------------




--------------------------------------- Iteration      1(  17)  ---------------------------------------


    POTLOK:  cpu time    0.0967: real time    0.0967
    SETDIJ:  cpu time    0.6392: real time    0.6392
    TRIAL :  cpu time    2.9070: real time    2.9094
 BZINTS: Fermi energy:  4.667608;172.000000 electrons
         Band energy:***********;  BLOECHL correction:  0.000000
 BZINTS: Fermi energy:  4.667608;172.000000 electrons
         Band energy:***********;  BLOECHL correction:  0.000000
    CORREC:  cpu time    3.2924: real time    3.2945
    CHARGE:  cpu time    1.0309: real time    1.0309
    --------------------------------------------
      LOOP:  cpu time    7.9819: real time    7.9896

 eigenvalue-minimisations  :     0
 total energy-change (2. order) :-0.3852801E-07  (-0.9774033E-10)
 number of electron     171.9999972 magnetization       0.0000000      0.0000000     -0.0000000
 augmentation part       70.5805140 magnetization       0.0000001     -0.0000002     -0.0001282

 Free energy of the ion-electron system (eV)
  ---------------------------------------------------
  alpha Z        PSCENC =       577.16362915
  Ewald energy   TEWEN  =    -15530.62694218
  -Hartree energ DENC   =    -10789.29467976
  -exchange      EXHF   =         0.00000000
  -V(xc)+E(xc)   XCENC  =       820.84377887
  PAW double counting   =     27817.32200242   -28739.47880946
  entropy T*S    EENTRO =         0.00000000
  eigenvalues    EBANDS =     -2742.79828999
  atomic energy  EATOM  =     28505.01627691
  ---------------------------------------------------
  free energy    TOTEN  =       -81.85303404 eV

  energy without entropy =      -81.85303404  energy(sigma->0) =      -81.85303404


--------------------------------------------------------------------------------------------------------




--------------------------------------- Iteration      1(  18)  ---------------------------------------


    POTLOK:  cpu time    0.0963: real time    0.0963
    SETDIJ:  cpu time    0.6377: real time    0.6377
    TRIAL :  cpu time    2.9133: real time    2.9158
 BZINTS: Fermi energy:  4.667608;172.000000 electrons
         Band energy:***********;  BLOECHL correction:  0.000000
 BZINTS: Fermi energy:  4.667608;172.000000 electrons
         Band energy:***********;  BLOECHL correction:  0.000000
    CORREC:  cpu time    3.2996: real time    3.3018
    CHARGE:  cpu time    1.0410: real time    1.0410
    --------------------------------------------
      LOOP:  cpu time    8.0050: real time    8.0129

 eigenvalue-minimisations  :     0
 total energy-change (2. order) :-0.3757668E-07  (-0.9504214E-10)
 number of electron     171.9999972 magnetization      -0.0000000      0.0000000      0.0000000
 augmentation part       70.5805140 magnetization       0.0000001     -0.0000002     -0.0001282

 Free energy of the ion-electron system (eV)
  ---------------------------------------------------
  alpha Z        PSCENC =       577.16362915
  Ewald energy   TEWEN  =    -15530.62694218
  -Hartree energ DENC   =    -10789.29467926
  -exchange      EXHF   =         0.00000000
  -V(xc)+E(xc)   XCENC  =       820.84377877
  PAW double counting   =     27817.32200085   -28739.47880784
  entropy T*S    EENTRO =         0.00000000
  eigenvalues    EBANDS =     -2742.79829048
  atomic energy  EATOM  =     28505.01627691
  ---------------------------------------------------
  free energy    TOTEN  =       -81.85303408 eV

  energy without entropy =      -81.85303408  energy(sigma->0) =      -81.85303408


--------------------------------------------------------------------------------------------------------




--------------------------------------- Iteration      1(  19)  ---------------------------------------


    POTLOK:  cpu time    0.0972: real time    0.0972
    SETDIJ:  cpu time    0.6403: real time    0.6403
    TRIAL :  cpu time    2.9057: real time    2.9079
 BZINTS: Fermi energy:  4.667608;172.000000 electrons
         Band energy:***********;  BLOECHL correction:  0.000000
 BZINTS: Fermi energy:  4.667608;172.000000 electrons
         Band energy:***********;  BLOECHL correction:  0.000000
    CORREC:  cpu time    3.2844: real time    3.2866
    CHARGE:  cpu time    1.0336: real time    1.0336
    --------------------------------------------
      LOOP:  cpu time    7.9726: real time    7.9805

 eigenvalue-minimisations  :     0
 total energy-change (2. order) :-0.3707100E-07  (-0.9356038E-10)
 number of electron     171.9999972 magnetization       0.0000000     -0.0000000     -0.0000000
 augmentation part       70.5805140 magnetization       0.0000001     -0.0000002     -0.0001282

 Free energy of the ion-electron system (eV)
  ---------------------------------------------------
  alpha Z        PSCENC =       577.16362915
  Ewald energy   TEWEN  =    -15530.62694218
  -Hartree energ DENC   =    -10789.29467876
  -exchange      EXHF   =         0.00000000
  -V(xc)+E(xc)   XCENC  =       820.84377868
  PAW double counting   =     27817.32199928   -28739.47880623
  entropy T*S    EENTRO =         0.00000000
  eigenvalues    EBANDS =     -2742.79829096
  atomic energy  EATOM  =     28505.01627691
  ---------------------------------------------------
  free energy    TOTEN  =       -81.85303411 eV

  energy without entropy =      -81.85303411  energy(sigma->0) =      -81.85303411


--------------------------------------------------------------------------------------------------------




--------------------------------------- Iteration      1(  20)  ---------------------------------------


    POTLOK:  cpu time    0.0973: real time    0.0973
    SETDIJ:  cpu time    0.6370: real time    0.6370
    TRIAL :  cpu time    2.9025: real time    2.9048
 BZINTS: Fermi energy:  4.667608;172.000000 electrons
         Band energy:***********;  BLOECHL correction:  0.000000
 BZINTS: Fermi energy:  4.667608;172.000000 electrons
         Band energy:***********;  BLOECHL correction:  0.000000
    CORREC:  cpu time    3.2849: real time    3.2870
    CHARGE:  cpu time    1.0316: real time    1.0316
    --------------------------------------------
      LOOP:  cpu time    7.9727: real time    7.9777

 eigenvalue-minimisations  :     0
 total energy-change (2. order) :-0.3690729E-07  (-0.9351957E-10)
 number of electron     171.9999972 magnetization      -0.0000000     -0.0000000     -0.0000000
 augmentation part       70.5805140 magnetization       0.0000001     -0.0000002     -0.0001282

 Free energy of the ion-electron system (eV)
  ---------------------------------------------------
  alpha Z        PSCENC =       577.16362915
  Ewald energy   TEWEN  =    -15530.62694218
  -Hartree energ DENC   =    -10789.29467826
  -exchange      EXHF   =         0.00000000
  -V(xc)+E(xc)   XCENC  =       820.84377859
  PAW double counting   =     27817.32199771   -28739.47880461
  entropy T*S    EENTRO =         0.00000000
  eigenvalues    EBANDS =     -2742.79829146
  atomic energy  EATOM  =     28505.01627691
  ---------------------------------------------------
  free energy    TOTEN  =       -81.85303415 eV

  energy without entropy =      -81.85303415  energy(sigma->0) =      -81.85303415


--------------------------------------------------------------------------------------------------------




--------------------------------------- Iteration      1(  21)  ---------------------------------------


    POTLOK:  cpu time    0.0963: real time    0.0963
    SETDIJ:  cpu time    0.6363: real time    0.6363
    TRIAL :  cpu time    2.9046: real time    2.9068
 BZINTS: Fermi energy:  4.667608;172.000000 electrons
         Band energy:***********;  BLOECHL correction:  0.000000
 BZINTS: Fermi energy:  4.667608;172.000000 electrons
         Band energy:***********;  BLOECHL correction:  0.000000
    CORREC:  cpu time    3.2925: real time    3.2946
    CHARGE:  cpu time    1.0313: real time    1.0313
    --------------------------------------------
      LOOP:  cpu time    7.9772: real time    7.9849

 eigenvalue-minimisations  :     0
 total energy-change (2. order) :-0.3744208E-07  (-0.9523150E-10)
 number of electron     171.9999972 magnetization       0.0000000     -0.0000000     -0.0000000
 augmentation part       70.5805140 magnetization       0.0000001     -0.0000002     -0.0001282

 Free energy of the ion-electron system (eV)
  ---------------------------------------------------
  alpha Z        PSCENC =       577.16362915
  Ewald energy   TEWEN  =    -15530.62694218
  -Hartree energ DENC   =    -10789.29467774
  -exchange      EXHF   =         0.00000000
  -V(xc)+E(xc)   XCENC  =       820.84377849
  PAW double counting   =     27817.32199610   -28739.47880295
  entropy T*S    EENTRO =         0.00000000
  eigenvalues    EBANDS =     -2742.79829197
  atomic energy  EATOM  =     28505.01627691
  ---------------------------------------------------
  free energy    TOTEN  =       -81.85303419 eV

  energy without entropy =      -81.85303419  energy(sigma->0) =      -81.85303419


--------------------------------------------------------------------------------------------------------




--------------------------------------- Iteration      1(  22)  ---------------------------------------


    POTLOK:  cpu time    0.0976: real time    0.0976
    SETDIJ:  cpu time    0.6365: real time    0.6365
    TRIAL :  cpu time    2.8998: real time    2.9021
 BZINTS: Fermi energy:  4.667608;172.000000 electrons
         Band energy:***********;  BLOECHL correction:  0.000000
[...]
 -0.000   0.000  -0.000   0.000  -0.000   0.000   0.000  -0.000   0.000  -0.000  -0.000   0.000   0.000  -0.000   0.000  -0.000
 pseudopotential strength for first ion, spin component:           3
  0.000   0.000   0.000   0.000   0.000   0.000  -0.000  -0.000  -0.000  -0.000   0.000   0.000  -0.000  -0.000  -0.000  -0.000
  0.000   0.000   0.000   0.000   0.000   0.000  -0.000  -0.000  -0.000  -0.000   0.000   0.000  -0.000  -0.000  -0.000  -0.000
  0.000   0.000   0.000   0.000   0.000   0.000  -0.000  -0.000  -0.000  -0.000   0.000   0.000  -0.000  -0.000  -0.000  -0.000
 -0.000  -0.000  -0.000  -0.000  -0.000  -0.000   0.000   0.000   0.000   0.000  -0.000  -0.000   0.000   0.000   0.000   0.000
 -0.000  -0.000  -0.000  -0.000  -0.000  -0.000   0.000   0.000   0.000   0.000  -0.000  -0.000   0.000   0.000   0.000   0.000
  0.000   0.000   0.000   0.000   0.000   0.000  -0.000  -0.000  -0.000  -0.000   0.000   0.000  -0.000  -0.000  -0.000  -0.000
 -0.000  -0.000  -0.000  -0.000  -0.000  -0.000   0.000   0.000   0.000   0.000  -0.000  -0.000   0.000   0.000   0.000   0.000
 -0.000  -0.000  -0.000  -0.000  -0.000  -0.000   0.000   0.000   0.000   0.000  -0.000  -0.000   0.000   0.000   0.000   0.000
 pseudopotential strength for first ion, spin component:           4
 39.566   0.000  45.440   0.000  -0.001   0.000  -0.000   0.000  -0.004   0.000  -0.001   0.000  -0.000   0.000  -0.005   0.000
 45.440   0.000  52.188   0.000  -0.001   0.000  -0.000   0.000  -0.004   0.000  -0.001   0.000  -0.001   0.000  -0.006   0.000
 -0.001   0.000  -0.001   0.000   8.212   0.000   0.002   0.000  -0.000   0.000  11.131   0.000   0.003   0.000  -0.000   0.000
 -0.000   0.000  -0.000   0.000   0.002   0.000   8.211   0.000  -0.001   0.000   0.003   0.000  11.129   0.000  -0.001   0.000
 -0.004   0.000  -0.004   0.000  -0.000   0.000  -0.001   0.000   8.213   0.000  -0.000   0.000  -0.001   0.000  11.132   0.000
 -0.001   0.000  -0.001   0.000  11.131   0.000   0.003   0.000  -0.000   0.000  15.107   0.000   0.003   0.000  -0.000   0.000
 -0.000   0.000  -0.001   0.000   0.003   0.000  11.129   0.000  -0.001   0.000   0.003   0.000  15.104   0.000  -0.001   0.000
 -0.005   0.000  -0.006   0.000  -0.000   0.000  -0.001   0.000  11.132   0.000  -0.000   0.000  -0.001   0.000  15.108   0.000
 total augmentation occupancy for first ion, spin component:           1
 10.560  -6.529   0.000   0.000  -0.598   0.000   0.000   0.162
 -6.529   4.753   0.000   0.000   0.493   0.000   0.000  -0.102
  0.000   0.000   3.628   0.088   0.000  -1.026  -0.047   0.000
  0.000   0.000   0.088   3.413   0.000  -0.047  -0.914   0.000
 -0.598   0.493   0.000   0.000   3.626   0.000   0.000  -1.028
  0.000   0.000  -1.026  -0.047   0.000   0.341   0.017   0.000
  0.000   0.000  -0.047  -0.914   0.000   0.017   0.299   0.000
  0.162  -0.102   0.000   0.000  -1.028   0.000   0.000   0.343
 total augmentation occupancy for first ion, spin component:           2
 -0.000   0.000   0.000  -0.000   0.000  -0.000  -0.000  -0.000
  0.000  -0.000   0.000   0.000  -0.000   0.000   0.000   0.000
  0.000  -0.000   0.000   0.000   0.000  -0.000  -0.000  -0.000
  0.000  -0.000   0.000   0.000   0.000  -0.000  -0.000   0.000
  0.000  -0.000   0.000  -0.000   0.000  -0.000   0.000  -0.000
  0.000   0.000  -0.000  -0.000   0.000   0.000   0.000   0.000
  0.000   0.000  -0.000  -0.000   0.000   0.000   0.000   0.000
 -0.000   0.000  -0.000   0.000  -0.000   0.000   0.000   0.000
 total augmentation occupancy for first ion, spin component:           3
 -0.000  -0.000   0.000  -0.000  -0.000  -0.000   0.000  -0.000
 -0.000   0.000   0.000   0.000  -0.000   0.000  -0.000  -0.000
  0.000   0.000  -0.000   0.000  -0.000  -0.000   0.000   0.000
 -0.000   0.000  -0.000   0.000   0.000   0.000   0.000  -0.000
 -0.000   0.000  -0.000   0.000   0.000   0.000  -0.000  -0.000
 -0.000   0.000  -0.000   0.000   0.000   0.000   0.000  -0.000
  0.000  -0.000   0.000   0.000  -0.000  -0.000   0.000   0.000
  0.000   0.000   0.000  -0.000   0.000  -0.000   0.000  -0.000
 total augmentation occupancy for first ion, spin component:           4
  0.000   0.000   0.128   0.105   0.000   0.076   0.070   0.000
  0.000   0.000  -0.103  -0.085  -0.000  -0.085  -0.078  -0.000
  0.128  -0.103   0.000  -0.000   0.006   0.000   0.000  -0.006
  0.105  -0.085   0.000   0.000   0.006  -0.000   0.000  -0.001
  0.000  -0.000   0.006   0.006   0.000  -0.006  -0.001   0.000
  0.076  -0.085   0.000  -0.000  -0.006   0.000   0.000   0.015
  0.070  -0.078   0.000   0.000  -0.001   0.000   0.000   0.012
  0.000   0.000  -0.006  -0.001   0.000   0.015   0.012  -0.000


------------------------ aborting loop because EDIFF is reached ----------------------------------------


 


 total charge     
 
# of ion       s       p       d       tot
------------------------------------------
    1        1.314   2.398   0.000   3.713
    2        1.314   2.397   0.000   3.711
    3        1.315   2.397   0.000   3.711
    4        1.315   2.397   0.000   3.711
    5        1.314   2.397   0.000   3.711
    6        1.314   2.398   0.000   3.713
    7        1.315   2.397   0.000   3.711
    8        1.315   2.397   0.000   3.711
    9        0.251   6.188   8.923  15.362
   10        0.251   6.188   8.923  15.362
   11        0.251   6.188   8.923  15.362
   12        0.251   6.188   8.923  15.362
   13        0.343   6.339   5.807  12.489
   14        0.343   6.339   5.807  12.489
   15        0.343   6.339   5.807  12.489
   16        0.343   6.339   5.807  12.489
--------------------------------------------------
tot         12.895  69.282  58.919 141.096
 


 magnetization (x)
 
# of ion       s       p       d       tot
------------------------------------------
    1       -0.000  -0.000   0.000  -0.000
    2        0.000   0.000   0.000   0.000
    3       -0.000   0.000   0.000   0.000
    4       -0.000   0.000   0.000   0.000
    5        0.000   0.000   0.000   0.000
    6       -0.000  -0.000   0.000  -0.000
    7       -0.000   0.000   0.000   0.000
    8       -0.000   0.000   0.000   0.000
    9       -0.000   0.000  -0.000  -0.000
   10        0.000   0.000  -0.000  -0.000
   11       -0.000   0.000  -0.000  -0.000
   12        0.000   0.000  -0.000  -0.000
   13       -0.000  -0.000   0.000   0.000
   14       -0.000  -0.000   0.000   0.000
   15       -0.000  -0.000   0.000   0.000
   16       -0.000  -0.000   0.000   0.000
--------------------------------------------------
tot         -0.000  -0.000  -0.000  -0.000
 


 magnetization (y)
 
# of ion       s       p       d       tot
------------------------------------------
    1        0.000   0.000   0.000   0.000
    2        0.000   0.000   0.000   0.000
    3       -0.000  -0.000   0.000  -0.000
    4        0.000   0.000   0.000   0.000
    5        0.000   0.000   0.000   0.000
    6        0.000   0.000   0.000   0.000
    7       -0.000  -0.000   0.000  -0.000
    8        0.000   0.000   0.000   0.000
    9       -0.000   0.000   0.000   0.000
   10        0.000  -0.000   0.000   0.000
   11       -0.000   0.000   0.000   0.000
   12        0.000  -0.000   0.000   0.000
   13        0.000   0.000  -0.000   0.000
   14       -0.000   0.000  -0.000  -0.000
   15        0.000   0.000  -0.000   0.000
   16       -0.000   0.000  -0.000  -0.000
--------------------------------------------------
tot          0.000   0.000   0.000   0.000
 


 magnetization (z)
 
# of ion       s       p       d       tot
------------------------------------------
    1        0.000  -0.002   0.000  -0.002
    2        0.000  -0.003   0.000  -0.003
    3       -0.000   0.002   0.000   0.002
    4       -0.000   0.003   0.000   0.003
    5        0.000  -0.003   0.000  -0.003
    6        0.000  -0.002   0.000  -0.002
    7       -0.000   0.002   0.000   0.002
    8       -0.000   0.003   0.000   0.003
    9        0.000   0.002  -0.008  -0.006
   10       -0.000  -0.002   0.008   0.006
   11        0.000   0.002  -0.008  -0.006
   12       -0.000  -0.002   0.008   0.006
   13        0.021   0.052   3.687   3.760
   14       -0.021  -0.053  -3.687  -3.760
   15        0.021   0.052   3.687   3.760
   16       -0.021  -0.053  -3.687  -3.760
--------------------------------------------------
tot         -0.000   0.000  -0.000  -0.000
 
    FORLOC:  cpu time    0.0033: real time    0.0033
    FORNL :  cpu time    0.7521: real time    0.7521
    STRESS:  cpu time    0.6545: real time    0.6545
    FORCOR:  cpu time    0.0866: real time    0.0866
    OFIELD:  cpu time    0.0007: real time    0.0007

  FORCE on cell =-STRESS in cart. coord.  units (eV):
  Direction    XX          YY          ZZ          XY          YZ          ZX
  --------------------------------------------------------------------------------------
  Alpha Z   577.16363   577.16363   577.16363
  Ewald   -5006.30211 -5006.30211 -5518.05516    -0.00000    -0.00000    -0.00000
  Hartree  3682.45972  3682.45972  3424.37514    -0.00000     0.00000     0.00000
  E(xc)   -1049.84575 -1049.84575 -1050.14353    -0.00000    -0.00000    -0.00000
  Local   -1541.95988 -1541.95988  -771.85121    -0.00000    -0.00000    -0.00000
  n-local   118.60029   119.89489   114.37477    -0.15597    -0.03317    -0.02920
  augment  1181.62507  1181.62507  1176.65020     0.00000     0.00000    -0.00000
  Kinetic  2028.68007  2035.49238  2047.48600    -0.75536     0.18165    -0.06727
  Fock        0.00000     0.00000     0.00000     0.00000     0.00000     0.00000
  -------------------------------------------------------------------------------------
  Total      -5.52552    -5.52552    -0.00016     0.00000     0.00000     0.00000
  in kB     -30.15427   -30.15427    -0.00090     0.00000     0.00000     0.00000
  external pressure =      -20.10 kB  Pullay stress =        0.00 kB


 VOLUME and BASIS-vectors are now :
 -----------------------------------------------------------------------------
  energy-cutoff  :      700.00
  volume of cell :      293.59
      direct lattice vectors                 reciprocal lattice vectors
     5.469137082  0.000000000  0.000000000     0.182844201  0.000000000  0.000000000
     0.000000000  5.469137082  0.000000000     0.000000000  0.182844201  0.000000000
     0.000000000  0.000000000  9.815153088     0.000000000  0.000000000  0.101883281

  length of vectors
     5.469137082  5.469137082  9.815153088     0.182844201  0.182844201  0.101883281


 FORCES acting on ions:
    Electron-Ion                     Ewald-Force                    Non-Local-Force
 -----------------------------------------------------------------------------------------------
   0.416E+02 -.194E-12 -.162E-12   -.424E+02 0.142E-13 0.000E+00   0.744E+00 0.257E-18 -.141E-17
   -.416E+02 -.121E-11 -.706E-13   0.424E+02 -.284E-13 -.284E-13   -.744E+00 0.480E-18 0.241E-18
   0.540E-12 -.416E+02 0.392E-12   0.275E-13 0.424E+02 0.711E-14   0.701E-18 -.744E+00 -.149E-17
   0.342E-12 0.416E+02 0.424E-12   -.444E-13 -.424E+02 -.711E-13   -.126E-19 0.744E+00 -.189E-19
   -.416E+02 -.301E-12 -.302E-12   0.424E+02 -.160E-13 -.284E-13   -.744E+00 0.494E-18 -.145E-17
   0.416E+02 -.597E-13 0.210E-14   -.424E+02 0.187E-13 0.711E-13   0.744E+00 0.206E-18 -.246E-19
   0.372E-12 -.416E+02 0.757E-12   -.426E-13 0.424E+02 0.000E+00   0.750E-18 -.744E+00 -.135E-17
   0.506E-12 0.416E+02 0.585E-12   0.711E-13 -.424E+02 -.568E-13   -.894E-18 0.744E+00 -.319E-18
   0.140E-12 -.182E-12 0.302E-11   0.107E-04 -.259E-04 0.114E-12   0.215E-18 0.246E-18 -.528E-18
   0.169E-11 0.229E-12 -.683E-11   -.107E-04 -.259E-04 -.568E-13   -.239E-18 0.266E-18 -.130E-19
   0.174E-11 -.593E-11 0.138E-13   -.107E-04 0.259E-04 0.114E-12   0.244E-18 0.242E-18 -.612E-18
   0.157E-12 0.190E-11 0.440E-11   0.107E-04 0.259E-04 -.103E-12   -.238E-18 0.264E-18 0.381E-18
   0.375E-12 0.286E-12 0.240E-12   -.837E-05 0.214E-04 0.000E+00   0.312E-18 0.604E-19 0.124E-18
   0.109E-11 -.307E-12 -.333E-10   0.837E-05 0.214E-04 0.124E-12   0.250E-18 -.120E-18 0.122E-17
   0.107E-11 -.358E-11 -.105E-10   0.837E-05 -.214E-04 -.568E-13   -.431E-18 -.630E-19 -.656E-18
   0.401E-12 0.364E-12 0.404E-12   -.837E-05 -.214E-04 0.436E-17   -.411E-18 0.260E-18 0.260E-18
 -----------------------------------------------------------------------------------------------
   0.146E-10 -.281E-11 -.412E-10   -.839E-13 0.306E-13 0.287E-13   0.444E-15 -.110E-15 -.565E-17
 
 
 POSITION                                       TOTAL-FORCE (eV/Angst)
 -----------------------------------------------------------------------------------
      1.37406      1.36728      1.22689         0.000004     -0.000000     -0.000000
      4.09508      4.10185      1.22689        -0.000004      0.000000     -0.000000
      1.36728      4.09508      8.58826        -0.000000     -0.000004     -0.000000
      4.10185      1.37406      8.58826        -0.000000      0.000004      0.000000
      1.36051      1.36728      6.13447        -0.000004     -0.000000     -0.000000
      4.10863      4.10185      6.13447         0.000004     -0.000000     -0.000000
      4.10185      1.36051      3.68068        -0.000000     -0.000004      0.000000
      1.36728      4.10863      3.68068        -0.000000      0.000004     -0.000000
      0.00000      0.00000      4.90758        -0.000000      0.000000     -0.000000
      2.73457      0.00000      2.45379        -0.000000     -0.000000      0.000000
      2.73457      2.73457      0.00000         0.000000      0.000000      0.000000
      0.00000      2.73457      7.36136         0.000000      0.000000      0.000000
      0.00000      0.00000      0.00000        -0.000000     -0.000000      0.000000
      2.73457      0.00000      7.36136        -0.000000      0.000000     -0.000000
      2.73457      2.73457      4.90758         0.000000      0.000000      0.000000
      0.00000      2.73457      2.45379         0.000000     -0.000000     -0.000000
 -----------------------------------------------------------------------------------
    total drift:                                0.000000     -0.000000     -0.000000


--------------------------------------------------------------------------------------------------------



  FREE ENERGIE OF THE ION-ELECTRON SYSTEM (eV)
  ---------------------------------------------------
  free  energy   TOTEN  =       -81.85303639 eV

  energy  without entropy=      -81.85303639  energy(sigma->0) =      -81.85303639
 


--------------------------------------------------------------------------------------------------------


    POTLOK:  cpu time    0.7424: real time    0.7425


--------------------------------------------------------------------------------------------------------


 writing wavefunctions
     LOOP+:  cpu time  457.0786: real time  462.6136
    4ORBIT:  cpu time    0.0000: real time    0.0000
 


 total charge     
 
# of ion       s       p       d       tot
------------------------------------------
    1        1.314   2.398   0.000   3.713
    2        1.314   2.397   0.000   3.711
    3        1.315   2.397   0.000   3.711
    4        1.315   2.397   0.000   3.711
    5        1.314   2.397   0.000   3.711
    6        1.314   2.398   0.000   3.713
    7        1.315   2.397   0.000   3.711
    8        1.315   2.397   0.000   3.711
    9        0.251   6.188   8.923  15.362
   10        0.251   6.188   8.923  15.362
   11        0.251   6.188   8.923  15.362
   12        0.251   6.188   8.923  15.362
   13        0.343   6.339   5.807  12.489
   14        0.343   6.339   5.807  12.489
   15        0.343   6.339   5.807  12.489
   16        0.343   6.339   5.807  12.489
--------------------------------------------------
tot         12.895  69.282  58.919 141.096
 


 magnetization (x)
 
# of ion       s       p       d       tot
------------------------------------------
    1       -0.000  -0.000   0.000  -0.000
    2        0.000   0.000   0.000   0.000
    3       -0.000   0.000   0.000   0.000
    4       -0.000   0.000   0.000   0.000
    5        0.000   0.000   0.000   0.000
    6       -0.000  -0.000   0.000  -0.000
    7       -0.000   0.000   0.000   0.000
    8       -0.000   0.000   0.000   0.000
    9       -0.000   0.000  -0.000  -0.000
   10        0.000   0.000  -0.000  -0.000
   11       -0.000   0.000  -0.000  -0.000
   12        0.000   0.000  -0.000  -0.000
   13       -0.000  -0.000   0.000   0.000
   14       -0.000  -0.000   0.000   0.000
   15       -0.000  -0.000   0.000   0.000
   16       -0.000  -0.000   0.000   0.000
--------------------------------------------------
tot         -0.000  -0.000  -0.000  -0.000
 


 magnetization (y)
 
# of ion       s       p       d       tot
------------------------------------------
    1        0.000   0.000   0.000   0.000
    2        0.000   0.000   0.000   0.000
    3       -0.000  -0.000   0.000  -0.000
    4        0.000   0.000   0.000   0.000
    5        0.000   0.000   0.000   0.000
    6        0.000   0.000   0.000   0.000
    7       -0.000  -0.000   0.000  -0.000
    8        0.000   0.000   0.000   0.000
    9       -0.000   0.000   0.000   0.000
   10        0.000  -0.000   0.000   0.000
   11       -0.000   0.000   0.000   0.000
   12        0.000  -0.000   0.000   0.000
   13        0.000   0.000  -0.000   0.000
   14       -0.000   0.000  -0.000  -0.000
   15        0.000   0.000  -0.000   0.000
   16       -0.000   0.000  -0.000  -0.000
--------------------------------------------------
tot          0.000   0.000   0.000   0.000
 


 magnetization (z)
 
# of ion       s       p       d       tot
------------------------------------------
    1        0.000  -0.002   0.000  -0.002
    2        0.000  -0.003   0.000  -0.003
    3       -0.000   0.002   0.000   0.002
    4       -0.000   0.003   0.000   0.003
    5        0.000  -0.003   0.000  -0.003
    6        0.000  -0.002   0.000  -0.002
    7       -0.000   0.002   0.000   0.002
    8       -0.000   0.003   0.000   0.003
    9        0.000   0.002  -0.008  -0.006
   10       -0.000  -0.002   0.008   0.006
   11        0.000   0.002  -0.008  -0.006
   12       -0.000  -0.002   0.008   0.006
   13        0.021   0.052   3.687   3.760
   14       -0.021  -0.053  -3.687  -3.760
   15        0.021   0.052   3.687   3.760
   16       -0.021  -0.053  -3.687  -3.760
--------------------------------------------------
tot         -0.000   0.000  -0.000  -0.000
 
 BZINTS: Fermi energy:  4.667608;172.000000 electrons
         Band energy:***********;  BLOECHL correction:  0.000000
 BZINTS: Fermi energy:  4.667608;172.000000 electrons
         Band energy:***********;  BLOECHL correction:  0.000000
 BZINTS: Fermi energy:  4.667608;172.000000 electrons
         Band energy:***********;  BLOECHL correction:  0.000000
 BZINTS: Fermi energy:  4.667608;172.000000 electrons
         Band energy:***********;  BLOECHL correction:  0.000000

 total amount of memory used by VASP MPI-rank0    65368. kBytes
=======================================================================

   base      :      30000. kBytes
   nonl-proj :       4076. kBytes
   fftplans  :       1362. kBytes
   grid      :       5529. kBytes
   one-center:         62. kBytes
   wavefun   :      24339. kBytes
 
  
  
 General timing and accounting informations for this job:
 ========================================================
  
                  Total CPU time used (sec):      483.865
                            User time (sec):      458.531
                          System time (sec):       25.334
                         Elapsed time (sec):      491.691
  
                   Maximum memory used (kb):      339216.
                   Average memory used (kb):           0.
  
                          Minor page faults:       390483
                          Major page faults:           97
                 Voluntary context switches:        67247
