       N       E                     dE             d eps       ncg     rms          rms(c)
DAV:   1     0.603583962317E+04    0.60358E+04   -0.51677E+05 16384   0.196E+03
DAV:   2    -0.880246019137E+02   -0.61239E+04   -0.60154E+04 17408   0.446E+02
DAV:   3    -0.341469776372E+03   -0.25345E+03   -0.25247E+03 23552   0.985E+01
DAV:   4    -0.344925547116E+03   -0.34558E+01   -0.34556E+01 17920   0.116E+01
DAV:   5    -0.345029983658E+03   -0.10444E+00   -0.10444E+00 23040   0.199E+00    0.314E+01
DAV:   6    -0.332216938523E+03    0.12813E+02   -0.11826E+01 25600   0.109E+01    0.171E+01
DAV:   7    -0.328531759045E+03    0.36852E+01   -0.94445E+00 23552   0.836E+00    0.135E+01
DAV:   8    -0.328070048074E+03    0.46171E+00   -0.41547E+00 22784   0.527E+00    0.562E+00
DAV:   9    -0.328043217738E+03    0.26830E-01   -0.15768E+00 22272   0.389E+00    0.320E+00
DAV:  10    -0.328045487115E+03   -0.22694E-02   -0.93272E-01 21504   0.255E+00    0.249E+00
DAV:  11    -0.328038130783E+03    0.73563E-02   -0.20322E-01 22016   0.118E+00    0.806E-01
DAV:  12    -0.328047966325E+03   -0.98355E-02   -0.39121E-02 25600   0.355E-01    0.392E-01
DAV:  13    -0.328049356372E+03   -0.13900E-02   -0.86257E-03 19456   0.217E-01    0.177E-01
DAV:  14    -0.328050185749E+03   -0.82938E-03   -0.22904E-03 22272   0.655E-02    0.102E-01
DAV:  15    -0.328050648020E+03   -0.46227E-03   -0.12050E-03 22016   0.386E-02    0.548E-02
DAV:  16    -0.328050820780E+03   -0.17276E-03   -0.51344E-04 19712   0.229E-02    0.386E-02
DAV:  17    -0.328050906625E+03   -0.85845E-04   -0.46995E-04 20992   0.226E-02    0.189E-02
DAV:  18    -0.328050922986E+03   -0.16360E-04   -0.12237E-04 19968   0.119E-02    0.944E-03
DAV:  19    -0.328050924156E+03   -0.11707E-05   -0.49179E-06 20224   0.418E-03    0.576E-03
DAV:  20    -0.328050924766E+03   -0.60943E-06   -0.36241E-06 23808   0.244E-03    0.286E-03
DAV:  21    -0.328050924937E+03   -0.17176E-06   -0.56376E-07 24064   0.107E-03    0.142E-03
DAV:  22    -0.328050924976E+03   -0.38563E-07   -0.75104E-08 22784   0.406E-04    0.727E-04
DAV:  23    -0.328050924983E+03   -0.67375E-08   -0.27472E-08 15104   0.237E-04
   1 F= -.32805092E+03 E0= -.32805092E+03  d E =0.000000E+00  mag=     0.0000
