 vasp.5.4.4.18Apr17-6-g9f103f2a35 (build Oct 30 2023 17:30:16) complex          
  
 executed on             LinuxIFC date 2024.06.30  04:40:17
 running on  256 total cores
 distrk:  each k-point on  256 cores,    1 groups
 distr:  one band on NCORES_PER_BAND=   1 cores,  256 groups


--------------------------------------------------------------------------------------------------------


 INCAR:
 POTCAR:    PAW_PBE S 06Sep2000                   
 POTCAR:     PAW_PBE Cu_pv 06Sep2000              
 POTCAR:     PAW_PBE Fe_pv 02Aug2007              

 ----------------------------------------------------------------------------- 
|                                                                             |
|           W    W    AA    RRRRR   N    N  II  N    N   GGGG   !!!           |
|           W    W   A  A   R    R  NN   N  II  NN   N  G    G  !!!           |
|           W    W  A    A  R    R  N N  N  II  N N  N  G       !!!           |
|           W WW W  AAAAAA  RRRRR   N  N N  II  N  N N  G  GGG   !            |
|           WW  WW  A    A  R   R   N   NN  II  N   NN  G    G                |
|           W    W  A    A  R    R  N    N  II  N    N   GGGG   !!!           |
|                                                                             |
|      For optimal performance we recommend to set                            |
|        NCORE= 4 - approx SQRT( number of cores)                             |
|      NCORE specifies how many cores store one orbital (NPAR=cpu/NCORE).     |
|      This setting can  greatly improve the performance of VASP for DFT.     |
|      The default,   NCORE=1            might be grossly inefficient         |
|      on modern multi-core architectures or massively parallel machines.     |
|      Do your own testing !!!!                                               |
|      Unfortunately you need to use the default for GW and RPA calculations. |
|      (for HF NCORE is supported but not extensively tested yet)             |
|                                                                             |
 ----------------------------------------------------------------------------- 

 POTCAR:    PAW_PBE S 06Sep2000                   
   SHA256 =  0fc7481fb0695f01bdc6462160264c5c84044ae9ec85a907d398b887a2bc3132 S/
   COPYR  = (c) Copyright 06Sep2000 Georg Kresse                                
   COPYR  = This file is part of the software VASP. Any use, copying, and all ot
   COPYR  = If you do not have a valid VASP license, you may not use, copy or di
   VRHFIN =S : s2p4                                                             
   LEXCH  = PE                                                                  
   EATOM  =   276.8230 eV,   20.3459 Ry                                         
                                                                                
   TITEL  = PAW_PBE S 06Sep2000                                                 
   LULTRA =        F    use ultrasoft PP ?                                      
   IUNSCR =        1    unscreen: 0-lin 1-nonlin 2-no                           
   RPACOR =    1.500    partial core radius                                     
   POMASS =   32.066; ZVAL   =    6.000    mass and valenz                      
   RCORE  =    1.900    outmost cutoff radius                                   
   RWIGS  =    2.200; RWIGS  =    1.164    wigner-seitz radius (au A)           
   ENMAX  =  258.689; ENMIN  =  194.016 eV                                      
   ICORE  =        2    local potential                                         
   LCOR   =        T    correct aug charges                                     
   LPAW   =        T    paw PP                                                  
   EAUG   =  335.092                                                            
   DEXC   =    0.000                                                            
   RMAX   =    1.942    core radius for proj-oper                               
   RAUG   =    1.300    factor for augmentation sphere                          
   RDEP   =    1.954    radius for radial grids                                 
   RDEPT  =    1.744    core radius for aug-charge                              
                                                                                
   Atomic configuration                                                         
    6 entries                                                                   
     n  l   j            E        occ.                                          
     1  0  0.50     -2405.8406   2.0000                                         
     2  0  0.50      -211.7007   2.0000                                         
     2  1  1.50      -156.4958   6.0000                                         
     3  0  0.50       -17.2562   2.0000                                         
     3  1  0.50        -7.0085   4.0000                                         
     3  2  1.50        -6.8029   0.0000                                         
   Description                                                                  
     l       E           TYP  RCUT    TYP  RCUT                                 
     0    -17.2561641     23  1.900                                             
     0    -15.8743224     23  1.900                                             
     1     -7.0085400     23  1.900                                             
     1     -2.7779785     23  1.900                                             
     2     -6.8029130     23  1.900                                             
  local pseudopotential read in
  partial core-charges read in
  partial kinetic energy density read in
  atomic valenz-charges read in
  non local Contribution for L=           0  read in
    real space projection operators read in
  non local Contribution for L=           0  read in
    real space projection operators read in
  non local Contribution for L=           1  read in
    real space projection operators read in
  non local Contribution for L=           1  read in
    real space projection operators read in
    PAW grid and wavefunctions read in
 
   number of l-projection  operators is LMAX  =           4
   number of lm-projection operators is LMMAX =           8
 
 POTCAR:     PAW_PBE Cu_pv 06Sep2000              
   SHA256 =  cb7b504e2ea725fe1f25c85a9ac77d4012ce94cd394135b722c4e25ec297f1cb Cu
   COPYR  = (c) Copyright 06Sep2000 Georg Kresse                                
   COPYR  = This file is part of the software VASP. Any use, copying, and all ot
   COPYR  = If you do not have a valid VASP license, you may not use, copy or di
   VRHFIN =Cu: d10 p1                                                           
   LEXCH  = PE                                                                  
   EATOM  =  4120.1201 eV,  302.8203 Ry                                         
                                                                                
   TITEL  = PAW_PBE Cu_pv 06Sep2000                                             
   LULTRA =        F    use ultrasoft PP ?                                      
   IUNSCR =        1    unscreen: 0-lin 1-nonlin 2-no                           
   RPACOR =    1.500    partial core radius                                     
   POMASS =   63.546; ZVAL   =   17.000    mass and valenz                      
   RCORE  =    2.000    outmost cutoff radius                                   
   RWIGS  =    2.000; RWIGS  =    1.058    wigner-seitz radius (au A)           
   ENMAX  =  368.648; ENMIN  =  276.486 eV                                      
   RCLOC  =    1.304    cutoff for local pot                                    
   LCOR   =        T    correct aug charges                                     
   LPAW   =        T    paw PP                                                  
   EAUG   =  758.233                                                            
   DEXC   =    0.000                                                            
   RMAX   =    2.046    core radius for proj-oper                               
   RAUG   =    1.300    factor for augmentation sphere                          
   RDEP   =    2.025    radius for radial grids                                 
   RDEPT  =    1.558    core radius for aug-charge                              
                                                                                
   Atomic configuration                                                         
    8 entries                                                                   
     n  l   j            E        occ.                                          
     1  0  0.50     -8850.2467   2.0000                                         
     2  0  0.50     -1062.3498   2.0000                                         
     2  1  1.50      -916.8226   6.0000                                         
     3  0  0.50      -114.6929   2.0000                                         
     3  1  1.50       -72.1325   6.0000                                         
     3  2  2.50        -5.0394  10.0000                                         
     4  0  0.50        -4.6097   1.0000                                         
     4  3  2.50        -1.3606   0.0000                                         
   Description                                                                  
     l       E           TYP  RCUT    TYP  RCUT                                 
     1    -72.1324777     23  1.700                                             
     1     -1.3605826     23  1.700                                             
     2     -5.0393776     23  2.000                                             
     2     -6.3999602     23  2.000                                             
     0     -4.6097062     23  1.800                                             
     0     14.1620818     23  1.800                                             
  local pseudopotential read in
  partial core-charges read in
  partial kinetic energy density read in
  atomic valenz-charges read in
  non local Contribution for L=           1  read in
    real space projection operators read in
  non local Contribution for L=           1  read in
    real space projection operators read in
  non local Contribution for L=           2  read in
    real space projection operators read in
  non local Contribution for L=           2  read in
    real space projection operators read in
  non local Contribution for L=           0  read in
    real space projection operators read in
  non local Contribution for L=           0  read in
    real space projection operators read in
    PAW grid and wavefunctions read in
 
   number of l-projection  operators is LMAX  =           6
   number of lm-projection operators is LMMAX =          18
 
 POTCAR:     PAW_PBE Fe_pv 02Aug2007              
   SHA256 =  5d22e414b1f82158bf2c7ecb8b97b28fd0923e48cadc1c3bf74d524558f5dd32 Fe
   COPYR  = (c) Copyright 02Aug2007 Georg Kresse                                
   COPYR  = This file is part of the software VASP. Any use, copying, and all ot
   COPYR  = If you do not have a valid VASP license, you may not use, copy or di
   VRHFIN =Fe:  3pd7s1                                                          
   LEXCH  = PE                                                                  
   EATOM  =  2457.4239 eV,  180.6156 Ry                                         
                                                                                
   TITEL  = PAW_PBE Fe_pv 02Aug2007                                             
   LULTRA =        F    use ultrasoft PP ?                                      
   IUNSCR =        1    unscreen: 0-lin 1-nonlin 2-no                           
   RPACOR =    1.750    partial core radius                                     
   POMASS =   55.847; ZVAL   =   14.000    mass and valenz                      
   RCORE  =    2.200    outmost cutoff radius                                   
   RWIGS  =    2.200; RWIGS  =    1.164    wigner-seitz radius (au A)           
   ENMAX  =  293.238; ENMIN  =  219.928 eV                                      
   ICORE  =        3    local potential                                         
   LCOR   =        T    correct aug charges                                     
   LPAW   =        T    paw PP                                                  
   EAUG   =  578.342                                                            
   DEXC   =    0.000                                                            
   RMAX   =    2.249    core radius for proj-oper                               
   RAUG   =    1.300    factor for augmentation sphere                          
   RDEP   =    2.296    radius for radial grids                                 
   RDEPT  =    1.766    core radius for aug-charge                              
                                                                                
   Atomic configuration                                                         
    8 entries                                                                   
     n  l   j            E        occ.                                          
     1  0  0.50     -6993.8440   2.0000                                         
     2  0  0.50      -814.6047   2.0000                                         
     2  1  1.50      -693.3689   6.0000                                         
     3  0  0.50       -89.4732   2.0000                                         
     3  1  1.50       -55.6373   6.0000                                         
     3  2  2.50        -3.8151   7.0000                                         
     4  0  0.50        -4.2551   1.0000                                         
     4  3  2.50        -1.3606   0.0000                                         
   Description                                                                  
     l       E           TYP  RCUT    TYP  RCUT                                 
     1    -55.6372668     23  2.000                                             
     1     -5.4423304     23  2.000                                             
     2     -3.8151096     23  2.200                                             
     2     -5.1756922     23  2.200                                             
     0     -4.2550951     23  2.200                                             
     0     27.2116520     23  2.200                                             
     3     -1.3605826     23  2.200                                             
  local pseudopotential read in
  partial core-charges read in
  partial kinetic energy density read in
  atomic valenz-charges read in
  non local Contribution for L=           1  read in
    real space projection operators read in
  non local Contribution for L=           1  read in
    real space projection operators read in
  non local Contribution for L=           2  read in
    real space projection operators read in
  non local Contribution for L=           2  read in
    real space projection operators read in
  non local Contribution for L=           0  read in
    real space projection operators read in
  non local Contribution for L=           0  read in
    real space projection operators read in
    PAW grid and wavefunctions read in
 
   number of l-projection  operators is LMAX  =           6
   number of lm-projection operators is LMMAX =          18
 

 ----------------------------------------------------------------------------- 
|                                                                             |
|  ADVICE TO THIS USER RUNNING 'VASP/VAMP'   (HEAR YOUR MASTER'S VOICE ...):  |
|                                                                             |
|      You have a (more or less) 'large supercell' and for larger cells       |
|      it might be more efficient to use real space projection opertators     |
|      So try LREAL= Auto  in the INCAR   file.                               |
|      Mind:          For very  accurate calculation you might also keep the  |
|      reciprocal projection scheme          (i.e. LREAL=.FALSE.)             |
|                                                                             |
 ----------------------------------------------------------------------------- 


 ----------------------------------------------------------------------------- 
|                                                                             |
|  ADVICE TO THIS USER RUNNING 'VASP/VAMP'   (HEAR YOUR MASTER'S VOICE ...):  |
|                                                                             |
|      You enforced a specific xc-type in the INCAR file,                     |
|      a different type was found on the POTCAR file                          |
|          I HOPE YOU KNOW, WHAT YOU ARE  DOING                               |
|                                                                             |
 ----------------------------------------------------------------------------- 

  PAW_PBE S 06Sep2000                   :
 energy of atom  1       EATOM= -276.8230
 kinetic energy error for atom=    0.0007 (will be added to EATOM!!)
   PAW_PBE Cu_pv 06Sep2000              :
 energy of atom  2       EATOM=-4120.1201
 kinetic energy error for atom=    0.0094 (will be added to EATOM!!)
   PAW_PBE Fe_pv 02Aug2007              :
 energy of atom  3       EATOM=-2457.4239
 kinetic energy error for atom=    0.0025 (will be added to EATOM!!)
 
 
 POSCAR: Fe16 Cu16 S32                           
  positions in direct lattice
  No initial velocities read in
 exchange correlation table for  LEXCH =       14
   RHO(1)=    0.500       N(1)  =     2000
   RHO(2)=  100.500       N(2)  =     4000
 


--------------------------------------------------------------------------------------------------------


 ion  position               nearest neighbor table
   1  0.126  0.123  0.125-  41 2.26  37 2.26  61 2.27  49 2.28
   2  0.626  0.123  0.125-  42 2.26  38 2.26  62 2.27  50 2.28
   3  0.126  0.623  0.125-  43 2.26  39 2.26  63 2.27  51 2.28
   4  0.626  0.623  0.125-  44 2.26  40 2.26  64 2.27  52 2.28
   5  0.374  0.373  0.125-  39 2.26  41 2.26  52 2.27  62 2.28
   6  0.874  0.373  0.125-  40 2.26  42 2.26  51 2.27  61 2.28
   7  0.374  0.873  0.125-  37 2.26  43 2.26  50 2.27  64 2.28
   8  0.874  0.873  0.125-  38 2.26  44 2.26  49 2.27  63 2.28
   9  0.125  0.373  0.875-  41 2.26  45 2.26  51 2.27  55 2.27
  10  0.625  0.373  0.875-  42 2.26  46 2.26  52 2.27  56 2.27
  11  0.125  0.873  0.875-  43 2.26  47 2.26  49 2.27  53 2.27
  12  0.625  0.873  0.875-  44 2.26  48 2.26  50 2.27  54 2.27
  13  0.375  0.125  0.875-  41 2.26  46 2.26  50 2.28  53 2.28
  14  0.875  0.125  0.875-  42 2.26  45 2.26  49 2.28  54 2.28
  15  0.375  0.625  0.875-  43 2.26  48 2.26  52 2.28  55 2.28
  16  0.875  0.625  0.875-  44 2.26  47 2.26  51 2.28  56 2.28
  17  0.124  0.123  0.625-  45 2.26  33 2.26  57 2.27  53 2.28
  18  0.624  0.123  0.625-  46 2.26  34 2.26  58 2.27  54 2.28
  19  0.124  0.623  0.625-  47 2.26  35 2.26  59 2.27  55 2.28
  20  0.624  0.623  0.625-  48 2.26  36 2.26  60 2.27  56 2.28
  21  0.376  0.373  0.625-  36 2.26  46 2.26  55 2.27  57 2.28
  22  0.876  0.373  0.625-  35 2.26  45 2.26  56 2.27  58 2.28
  23  0.376  0.873  0.625-  34 2.26  48 2.26  53 2.27  59 2.28
  24  0.876  0.873  0.625-  33 2.26  47 2.26  54 2.27  60 2.28
  25  0.375  0.123  0.375-  34 2.26  37 2.26  57 2.27  62 2.27
  26  0.875  0.123  0.375-  33 2.26  38 2.26  58 2.27  61 2.27
  27  0.375  0.623  0.375-  36 2.26  39 2.26  59 2.27  64 2.27
  28  0.875  0.623  0.375-  35 2.26  40 2.26  60 2.27  63 2.27
  29  0.125  0.375  0.375-  35 2.26  39 2.26  57 2.28  61 2.28
  30  0.625  0.375  0.375-  36 2.26  40 2.26  58 2.28  62 2.28
  31  0.125  0.875  0.375-  33 2.26  37 2.26  59 2.28  63 2.28
  32  0.625  0.875  0.375-  34 2.26  38 2.26  60 2.28  64 2.28
  33  0.999  0.001  0.500-  24 2.26  31 2.26  26 2.26  17 2.26
  34  0.499  0.001  0.500-  23 2.26  32 2.26  25 2.26  18 2.26
  35  0.999  0.501  0.500-  22 2.26  29 2.26  28 2.26  19 2.26
  36  0.499  0.501  0.500-  21 2.26  30 2.26  27 2.26  20 2.26
  37  0.251  0.001  0.250-   7 2.26  31 2.26  25 2.26   1 2.26
  38  0.751  0.001  0.250-   8 2.26  32 2.26  26 2.26   2 2.26
  39  0.251  0.501  0.250-   5 2.26  29 2.26  27 2.26   3 2.26
  40  0.751  0.501  0.250-   6 2.26  30 2.26  28 2.26   4 2.26
  41  0.249  0.251  0.000-   1 2.26  13 2.26   9 2.26   5 2.26
  42  0.749  0.251  0.000-   2 2.26  14 2.26  10 2.26   6 2.26
  43  0.249  0.751  0.000-   3 2.26  15 2.26  11 2.26   7 2.26
  44  0.749  0.751  0.000-   4 2.26  16 2.26  12 2.26   8 2.26
  45  0.001  0.251  0.750-  17 2.26  14 2.26   9 2.26  22 2.26
  46  0.501  0.251  0.750-  18 2.26  13 2.26  10 2.26  21 2.26
  47  0.001  0.751  0.750-  19 2.26  16 2.26  11 2.26  24 2.26
  48  0.501  0.751  0.750-  20 2.26  15 2.26  12 2.26  23 2.26
  49  1.000  0.001  0.000-   8 2.27  11 2.27  14 2.28   1 2.28
  50  0.500  0.001  0.000-   7 2.27  12 2.27  13 2.28   2 2.28
  51  1.000  0.501  0.000-   6 2.27   9 2.27  16 2.28   3 2.28
  52  0.500  0.501  0.000-   5 2.27  10 2.27  15 2.28   4 2.28
  53  0.250  0.001  0.750-  23 2.27  11 2.27  13 2.28  17 2.28
  54  0.750  0.001  0.750-  24 2.27  12 2.27  14 2.28  18 2.28
  55  0.250  0.501  0.750-  21 2.27   9 2.27  15 2.28  19 2.28
  56  0.750  0.501  0.750-  22 2.27  10 2.27  16 2.28  20 2.28
  57  0.250  0.251  0.500-  17 2.27  25 2.27  29 2.28  21 2.28
  58  0.750  0.251  0.500-  18 2.27  26 2.27  30 2.28  22 2.28
  59  0.250  0.751  0.500-  19 2.27  27 2.27  31 2.28  23 2.28
  60  0.750  0.751  0.500-  20 2.27  28 2.27  32 2.28  24 2.28
  61  0.000  0.251  0.250-   1 2.27  26 2.27  29 2.28   6 2.28
  62  0.500  0.251  0.250-   2 2.27  25 2.27  30 2.28   5 2.28
  63  0.000  0.751  0.250-   3 2.27  28 2.27  31 2.28   8 2.28
  64  0.500  0.751  0.250-   4 2.27  27 2.27  32 2.28   7 2.28
 
  LATTYP: Found a simple monoclinic cell.
 ALAT       =    14.9870656976
 B/A-ratio  =     0.7018001530
 C/A-ratio  =     1.5724400132
 COS(beta)  =    -0.9508196317
  
  Lattice vectors:
  
 A1 = ( -10.6491670000,   0.0000000000, -10.5454910000)
 A2 = (   0.0000000000, -10.5179250000,   0.0000000000)
 A3 = (  10.7854020000,   0.0000000000,  20.9533720000)


Analysis of symmetry for initial positions (statically):
=====================================================================
 Subroutine PRICEL returns following result:
 
  LATTYP: Found a base centered monoclinic cell.
 ALAT       =    11.5374719080
 B/A-ratio  =     0.4558158444
 C/A-ratio  =     0.9021710021
 COS(beta)  =    -0.8100608995
  
  Lattice vectors:
  
 A1 = (  -2.5601155000,  -2.6294812500,   5.1695380000)
 A2 = (  -2.5601155000,   2.6294812500,   5.1695380000)
 A3 = (  -0.1362350000,   0.0000000000, -10.4078810000)
 
   8 primitive cells build up your supercell.
 

 Routine SETGRP: Setting up the symmetry group for a 
 simple monoclinic supercell.


 Subroutine GETGRP returns: Found  2 space group operations
 (whereof  1 operations were pure point group operations)
 out of a pool of  4 trial point group operations.


The static configuration has the point symmetry C_1 .
 The point group associated with its full space group is C_2 .


Analysis of symmetry for dynamics (positions and initial velocities):
=====================================================================
 Subroutine PRICEL returns following result:
 
  LATTYP: Found a base centered monoclinic cell.
 ALAT       =    11.5374719080
 B/A-ratio  =     0.4558158444
 C/A-ratio  =     0.9021710021
 COS(beta)  =    -0.8100608995
  
  Lattice vectors:
  
 A1 = (  -2.5601155000,  -2.6294812500,   5.1695380000)
 A2 = (  -2.5601155000,   2.6294812500,   5.1695380000)
 A3 = (  -0.1362350000,   0.0000000000, -10.4078810000)
 
   8 primitive cells build up your supercell.
 

 Routine SETGRP: Setting up the symmetry group for a 
 simple monoclinic supercell.


 Subroutine GETGRP returns: Found  2 space group operations
 (whereof  1 operations were pure point group operations)
 out of a pool of  4 trial point group operations.


The dynamic configuration has the point symmetry C_1 .
 The point group associated with its full space group is C_2 .


Analysis of structural, dynamic, and magnetic symmetry:
=====================================================================
 Subroutine PRICEL returns following result:
 
  LATTYP: Found a base centered monoclinic cell.
 ALAT       =    11.5374719080
 B/A-ratio  =     0.4558158444
 C/A-ratio  =     0.9021710021
 COS(beta)  =    -0.8100608995
  
  Lattice vectors:
  
 A1 = (  -2.5601155000,  -2.6294812500,   5.1695380000)
 A2 = (  -2.5601155000,   2.6294812500,   5.1695380000)
 A3 = (  -0.1362350000,   0.0000000000, -10.4078810000)
 
   8 primitive cells build up your supercell.
 

 Routine SETGRP: Setting up the symmetry group for a 
 simple monoclinic supercell.


 Subroutine GETGRP returns: Found  2 space group operations
 (whereof  1 operations were pure point group operations)
 out of a pool of  4 trial point group operations.


The magnetic configuration has the point symmetry C_1 .
 The point group associated with its full space group is C_2 .


 Subroutine INISYM returns: Found  2 space group operations
 (whereof  1 operations are pure point group operations),
 and found     8 'primitive' translations

 
 
 KPOINTS: Automatic mesh                          

Automatic generation of k-mesh.
Space group operators:
 irot       det(A)        alpha          n_x          n_y          n_z        tau_x        tau_y        tau_z
    1     1.000000     0.000001     1.000000     0.000000     0.000000     0.000000     0.000000     0.000000
    2     1.000000   180.000000     0.000000     1.000000     0.000000    -0.250000     0.000000    -0.250000
 
 Subroutine IBZKPT returns following result:
 ===========================================
 
 Found      8 irreducible k-points:
 
 Following reciprocal coordinates:
            Coordinates               Weight
  0.000000  0.000000  0.000000      1.000000
  0.500000  0.000000 -0.000000      1.000000
  0.000000  0.500000  0.000000      1.000000
  0.500000  0.500000 -0.000000      1.000000
  0.000000  0.000000  0.500000      1.000000
  0.500000  0.000000  0.500000      1.000000
  0.000000  0.500000  0.500000      1.000000
  0.500000  0.500000  0.500000      1.000000
 
 Following cartesian coordinates:
            Coordinates               Weight
  0.000000  0.000000  0.000000      1.000000
  0.047569  0.000000 -0.000623      1.000000
  0.000000  0.047538  0.000000      1.000000
  0.047569  0.047538 -0.000623      1.000000
 -0.000629  0.000000  0.048049      1.000000
  0.046940  0.000000  0.047426      1.000000
 -0.000629  0.047538  0.048049      1.000000
  0.046940  0.047538  0.047426      1.000000
 
 TETIRR: Found     24 inequivalent tetrahedra from       48
 
 Subroutine IBZKPT_HF returns following result:
 ==============================================
 
 Found      8 k-points in 1st BZ
 the following      8 k-points will be used (e.g. in the exchange kernel)
 Following reciprocal coordinates:   # in IRBZ
  0.000000  0.000000  0.000000    0.12500000   1 t-inv F
  0.500000  0.000000 -0.000000    0.12500000   2 t-inv F
  0.000000  0.500000  0.000000    0.12500000   3 t-inv F
  0.500000  0.500000 -0.000000    0.12500000   4 t-inv F
  0.000000  0.000000  0.500000    0.12500000   5 t-inv F
  0.500000  0.000000  0.500000    0.12500000   6 t-inv F
  0.000000  0.500000  0.500000    0.12500000   7 t-inv F
  0.500000  0.500000  0.500000    0.12500000   8 t-inv F


--------------------------------------------------------------------------------------------------------




 Dimension of arrays:
   k-points           NKPTS =      8   k-points in BZ     NKDIM =      8   number of bands    NBANDS=    512
   number of dos      NEDOS =    301   number of ions     NIONS =     64
   non local maximal  LDIM  =      6   non local SUM 2l+1 LMDIM =     18
   total plane-waves  NPLWV = 829440
   max r-space proj   IRMAX =      1   max aug-charges    IRDMAX=  22907
   dimension x,y,z NGX =    96 NGY =   96 NGZ =   90
   dimension x,y,z NGXF=   192 NGYF=  192 NGZF=  180
   support grid    NGXF=   192 NGYF=  192 NGZF=  180
   ions per type =              32  16  16
   NGX,Y,Z   is equivalent  to a cutoff of  15.18, 15.17, 14.37 a.u.
   NGXF,Y,Z  is equivalent  to a cutoff of  30.36, 30.35, 28.75 a.u.

 SYSTEM =  CuFeS2                                  
 POSCAR =  Fe16 Cu16 S32                           

 Startparameter for this run:
   NWRITE =      2    write-flag & timer
   PREC   = accura    normal or accurate (medium, high low for compatibility)
   ISTART =      0    job   : 0-new  1-cont  2-samecut
   ICHARG =      1    charge: 1-file 2-atom 10-const
   ISPIN  =      2    spin polarized calculation?
   LNONCOLLINEAR =      F non collinear calculations
   LSORBIT =      F    spin-orbit coupling
   INIWAV =      1    electr: 0-lowe 1-rand  2-diag
   LASPH  =      F    aspherical Exc in radial PAW
   METAGGA=      F    non-selfconsistent MetaGGA calc.

 Electronic Relaxation 1
   ENCUT  =  700.0 eV  51.45 Ry    7.17 a.u.  22.68 22.69 22.45*2*pi/ulx,y,z
   ENINI  =  700.0     initial cutoff
   ENAUG  =  758.2 eV  augmentation charge cutoff
   NELM   =    500;   NELMIN=  2; NELMDL=  0     # of ELM steps 
   EDIFF  = 0.1E-07   stopping-criterion for ELM
   LREAL  =      F    real-space projection
   NLSPLINE    = F    spline interpolate recip. space projectors
   LCOMPAT=      F    compatible to vasp.4.4
   GGA_COMPAT  = T    GGA compatible to vasp.4.4-vasp.4.6
   LMAXPAW     = -100 max onsite density
   LMAXMIX     =    4 max onsite mixed and CHGCAR
   VOSKOWN=      0    Vosko Wilk Nusair interpolation
   ROPT   =    0.00000   0.00000   0.00000
 Ionic relaxation
   EDIFFG = -.1E-04   stopping-criterion for IOM
   NSW    =      0    number of steps for IOM
   NBLOCK =      1;   KBLOCK =      1    inner block; outer block 
   IBRION =     -1    ionic relax: 0-MD 1-quasi-New 2-CG
   NFREE  =      0    steps in history (QN), initial steepest desc. (CG)
   ISIF   =      2    stress and relaxation
   IWAVPR =     10    prediction:  0-non 1-charg 2-wave 3-comb
   ISYM   =      2    0-nonsym 1-usesym 2-fastsym
   LCORR  =      T    Harris-Foulkes like correction to forces

   POTIM  = 0.5000    time-step for ionic-motion
   TEIN   =    0.0    initial temperature
   TEBEG  =    0.0;   TEEND  =   0.0 temperature during run
   SMASS  =  -3.00    Nose mass-parameter (am)
   estimated Nose-frequenzy (Omega)   =  0.10E-29 period in steps =****** mass=  -0.253E-26a.u.
   SCALEE = 1.0000    scale energy and forces
   NPACO  =    256;   APACO  = 16.0  distance and # of slots for P.C.
   PSTRESS=    0.0 pullay stress

  Mass of Ions in am
   POMASS =  32.07 63.55 55.85
  Ionic Valenz
   ZVAL   =   6.00 17.00 14.00
  Atomic Wigner-Seitz radii
   RWIGS  =  -1.00 -1.00 -1.00
  virtual crystal weights 
   VCA    =   1.00  1.00  1.00
   NELECT =     688.0000    total number of electrons
   NUPDOWN=      -1.0000    fix difference up-down

 DOS related values:
   EMIN   =  10.00;   EMAX   =-10.00  energy-range for DOS
   EFERMI =   0.00
   ISMEAR =    -5;   SIGMA  =   0.03  broadening in eV -4-tet -1-fermi 0-gaus

 Electronic relaxation 2 (details)
   IALGO  =     38    algorithm
   LDIAG  =      T    sub-space diagonalisation (order eigenvalues)
   LSUBROT=      F    optimize rotation matrix (better conditioning)
   TURBO    =      0    0=normal 1=particle mesh
   IRESTART =      0    0=no restart 2=restart with 2 vectors
   NREBOOT  =      0    no. of reboots
   NMIN     =      0    reboot dimension
   EREF     =   0.00    reference energy to select bands
   IMIX   =      4    mixing-type and parameters
     AMIX     =   0.40;   BMIX     =  1.00
     AMIX_MAG =   1.60;   BMIX_MAG =  1.00
     AMIN     =   0.10
     WC   =   100.;   INIMIX=   1;  MIXPRE=   1;  MAXMIX= -45

 Intra band minimization:
   WEIMIN = 0.0000     energy-eigenvalue tresh-hold
   EBREAK =  0.49E-11  absolut break condition
   DEPER  =   0.30     relativ break condition  

   TIME   =   0.40     timestep for ELM

  volume/ion in A,a.u.               =      17.98       121.33
  Fermi-wavevector in a.u.,A,eV,Ry     =   1.379189  2.606289 25.880479  1.902162
  Thomas-Fermi vector in A             =   2.504181
 
 Write flags
   LWAVE        =      T    write WAVECAR
   LDOWNSAMPLE  =      F    k-point downsampling of WAVECAR
   LCHARG       =      T    write CHGCAR
   LVTOT        =      F    write LOCPOT, total local potential
   LVHAR        =      F    write LOCPOT, Hartree potential only
   LELF         =      F    write electronic localiz. function (ELF)
   LORBIT       =     11    0 simple, 1 ext, 2 COOP (PROOUT), +10 PAW based schemes


 Dipole corrections
   LMONO  =      F    monopole corrections only (constant potential shift)
   LDIPOL =      F    correct potential (dipole corrections)
   IDIPOL =      0    1-x, 2-y, 3-z, 4-all directions 
   EPSILON=  1.0000000 bulk dielectric constant

 LDA+U is selected, type is set to LDAUTYPE =  2
   angular momentum for each species LDAUL =     2    2    2
   U (eV)           for each species LDAUU =   0.0  0.1  4.7
   J (eV)           for each species LDAUJ =   0.0  0.0  0.0
 Exchange correlation treatment:
   GGA     =    PS    GGA type
   LEXCH   =    14    internal setting for exchange type
   VOSKOWN=      0    Vosko Wilk Nusair interpolation
   LHFCALC =     F    Hartree Fock is set to
   LHFONE  =     F    Hartree Fock one center treatment
   AEXX    =    0.0000 exact exchange contribution

 Linear response parameters
   LEPSILON=     F    determine dielectric tensor
   LRPA    =     F    only Hartree local field effects (RPA)
   LNABLA  =     F    use nabla operator in PAW spheres
   LVEL    =     F    velocity operator in full k-point grid
   LINTERFAST=   F  fast interpolation
   KINTER  =     0    interpolate to denser k-point grid
   CSHIFT  =0.1000    complex shift for real part using Kramers Kronig
   OMEGAMAX=  -1.0    maximum frequency
   DEG_THRESHOLD= 0.2000000E-02 threshold for treating states as degnerate
   RTIME   =   -0.100 relaxation time in fs
  (WPLASMAI=    0.000 imaginary part of plasma frequency in eV, 0.658/RTIME)
   DFIELD  = 0.0000000 0.0000000 0.0000000 field for delta impulse in time
 
 Orbital magnetization related:
   ORBITALMAG=     F  switch on orbital magnetization
   LCHIMAG   =     F  perturbation theory with respect to B field
   DQ        =  0.001000  dq finite difference perturbation B field
   LLRAUG    =     F  two centre corrections for induced B field

 PEAD related settings:
   LPEAD      =     T    switch on PEAD
   IPEAD      =     4    finite difference order for dpsi/dk
   LCALCPOL   =     T    calculate macroscopic polarization
   LCALCEPS   =     F    calculate dielectric tensor
   EFIELD_PEAD=    0.0000    0.0000    0.0000
   SKIP_EDOTP =     F
   LRPA       =     F
   SKIP_SCF   =     F


--------------------------------------------------------------------------------------------------------


 Static calculation
 charge density and potential will be updated during run
 spin polarized calculation
 Variant of blocked Davidson
 Davidson routine will perform the subspace rotation
 perform sub-space diagonalisation
    after iterative eigenvector-optimisation
 modified Broyden-mixing scheme, WC =      100.0
 initial mixing is a Kerker type mixing with AMIX =  0.4000 and BMIX =      1.0000
 Hartree-type preconditioning will be used
 using additional bands          168
 reciprocal scheme for non local part
 use partial core corrections
 calculate Harris-corrections to forces 
   (improved forces if not selfconsistent)
 use gradient corrections 
 use of overlap-Matrix (Vanderbilt PP)
 Fermi weights with tetrahedron method with Bloechl corrections


--------------------------------------------------------------------------------------------------------


  energy-cutoff  :      700.00
  volume of cell :     1150.65
      direct lattice vectors                 reciprocal lattice vectors
    10.512932000  0.000000000  0.137610000     0.095137243  0.000000000 -0.001245308
     0.000000000 10.517925000  0.000000000     0.000000000  0.095075787  0.000000000
     0.136235000  0.000000000 10.407881000    -0.001257877  0.000000000  0.096097502

  length of vectors
    10.513832591 10.517925000 10.408772593     0.095145393  0.095075787  0.096105734


 
 k-points in units of 2pi/SCALE and weight: Automatic mesh                          
   0.00000000  0.00000000  0.00000000       0.125
   0.04756862  0.00000000 -0.00062265       0.125
   0.00000000  0.04753789  0.00000000       0.125
   0.04756862  0.04753789 -0.00062265       0.125
  -0.00062894  0.00000000  0.04804875       0.125
   0.04693968  0.00000000  0.04742610       0.125
  -0.00062894  0.04753789  0.04804875       0.125
   0.04693968  0.04753789  0.04742610       0.125
 
 k-points in reciprocal lattice and weights: Automatic mesh                          
   0.00000000  0.00000000  0.00000000       0.125
   0.50000000  0.00000000 -0.00000000       0.125
   0.00000000  0.50000000  0.00000000       0.125
   0.50000000  0.50000000 -0.00000000       0.125
   0.00000000  0.00000000  0.50000000       0.125
   0.50000000  0.00000000  0.50000000       0.125
   0.00000000  0.50000000  0.50000000       0.125
   0.50000000  0.50000000  0.50000000       0.125
 
 position of ions in fractional coordinates (direct lattice) 
   0.12620500  0.12333200  0.12525900
   0.62620500  0.12333200  0.12525900
   0.12620500  0.62333200  0.12525900
   0.62620500  0.62333200  0.12525900
   0.37379500  0.37333200  0.12474100
   0.87379500  0.37333200  0.12474100
   0.37379500  0.87333200  0.12474100
   0.87379500  0.87333200  0.12474100
   0.12500000  0.37280800  0.87500000
   0.62500000  0.37280800  0.87500000
   0.12500000  0.87280800  0.87500000
   0.62500000  0.87280800  0.87500000
   0.37500000  0.12498400  0.87500000
   0.87500000  0.12498400  0.87500000
   0.37500000  0.62498400  0.87500000
   0.87500000  0.62498400  0.87500000
   0.12379500  0.12333200  0.62474100
   0.62379500  0.12333200  0.62474100
   0.12379500  0.62333200  0.62474100
   0.62379500  0.62333200  0.62474100
   0.37620500  0.37333200  0.62525900
   0.87620500  0.37333200  0.62525900
   0.37620500  0.87333200  0.62525900
   0.87620500  0.87333200  0.62525900
   0.37500000  0.12280800  0.37500000
   0.87500000  0.12280800  0.37500000
   0.37500000  0.62280800  0.37500000
   0.87500000  0.62280800  0.37500000
   0.12500000  0.37498400  0.37500000
   0.62500000  0.37498400  0.37500000
   0.12500000  0.87498400  0.37500000
   0.62500000  0.87498400  0.37500000
   0.99943700  0.00141200  0.50000400
   0.49943700  0.00141200  0.50000400
   0.99943700  0.50141200  0.50000400
   0.49943700  0.50141200  0.50000400
   0.25056300  0.00141200  0.24999600
   0.75056300  0.00141200  0.24999600
   0.25056300  0.50141200  0.24999600
   0.75056300  0.50141200  0.24999600
   0.24943700  0.25141200  0.00000400
   0.74943700  0.25141200  0.00000400
   0.24943700  0.75141200  0.00000400
   0.74943700  0.75141200  0.00000400
   0.00056300  0.25141200  0.74999600
   0.50056300  0.25141200  0.74999600
   0.00056300  0.75141200  0.74999600
   0.50056300  0.75141200  0.74999600
   0.99969300  0.00136000  0.00013200
   0.49969300  0.00136000  0.00013200
   0.99969300  0.50136000  0.00013200
   0.49969300  0.50136000  0.00013200
   0.25030700  0.00136000  0.74986800
   0.75030700  0.00136000  0.74986800
   0.25030700  0.50136000  0.74986800
   0.75030700  0.50136000  0.74986800
   0.24969300  0.25136000  0.50013200
   0.74969300  0.25136000  0.50013200
   0.24969300  0.75136000  0.50013200
   0.74969300  0.75136000  0.50013200
   0.00030700  0.25136000  0.24986800
   0.50030700  0.25136000  0.24986800
   0.00030700  0.75136000  0.24986800
   0.50030700  0.75136000  0.24986800
 
 position of ions in cartesian coordinates  (Angst):
   1.34384924  1.29719673  1.32104784
   6.60031524  1.29719673  1.38985284
   1.34384924  6.55615923  1.32104784
   6.60031524  6.55615923  1.38985284
   3.94667551  3.92667798  1.34972741
   9.20314151  3.92667798  1.41853241
   3.94667551  9.18564048  1.34972741
   9.20314151  9.18564048  1.41853241
   1.43332212  3.92116658  9.12409712
   6.68978812  3.92116658  9.19290212
   1.43332212  9.18012908  9.12409712
   6.68978812  9.18012908  9.19290212
   4.06155512  1.31457234  9.15849962
   9.31802112  1.31457234  9.22730462
   4.06155512  6.57353484  9.15849962
   9.31802112  6.57353484  9.22730462
   1.38656001  1.29719673  6.51926541
   6.64302601  1.29719673  6.58807041
   1.38656001  6.55615923  6.51926541
   6.64302601  6.55615923  6.58807041
   4.04019974  3.92667798  6.55939084
   9.29666574  3.92667798  6.62819584
   4.04019974  9.18564048  6.55939084
   9.29666574  9.18564048  6.62819584
   3.99343762  1.29168533  3.95455912
   9.24990362  1.29168533  4.02336412
   3.99343762  6.55064783  3.95455912
   9.24990362  6.55064783  4.02336412
   1.36520462  3.94405359  3.92015662
   6.62167062  3.94405359  3.98896162
   1.36520462  9.20301609  3.92015662
   6.62167062  9.20301609  3.98896162
  10.57513126  0.01485131  5.34151466
   5.31866526  0.01485131  5.27270966
  10.57513126  5.27381381  5.34151466
   5.31866526  5.27381381  5.27270966
   2.66820999  0.01485131  2.63640859
   7.92467599  0.01485131  2.70521359
   2.66820999  5.27381381  2.63640859
   7.92467599  5.27381381  2.70521359
   2.62231476  2.64433256  0.03436666
   7.87878076  2.64433256  0.10317166
   2.62231476  7.90329506  0.03436666
   7.87878076  7.90329506  0.10317166
   0.10809449  2.64433256  7.80594659
   5.36456049  2.64433256  7.87475159
   0.10809449  7.90329506  7.80594659
   5.36456049  7.90329506  7.87475159
  10.50972251  0.01430438  0.13894159
   5.25325651  0.01430438  0.07013659
  10.50972251  5.27326688  0.13894159
   5.25325651  5.27326688  0.07013659
   2.73361874  0.01430438  7.83898166
   7.99008474  0.01430438  7.90778666
   2.73361874  5.27326688  7.83898166
   7.99008474  5.27326688  7.90778666
   2.69314101  2.64378563  5.23967459
   7.94960701  2.64378563  5.30847959
   2.69314101  7.90274813  5.23967459
   7.94960701  7.90274813  5.30847959
   0.03726824  2.64378563  2.60063866
   5.29373424  2.64378563  2.66944366
   0.03726824  7.90274813  2.60063866
   5.29373424  7.90274813  2.66944366
 


--------------------------------------------------------------------------------------------------------


 k-point  1 :   0.0000 0.0000 0.0000  plane waves:   48401
 k-point  2 :   0.5000 0.0000-0.0000  plane waves:   48380
 k-point  3 :   0.0000 0.5000 0.0000  plane waves:   48438
 k-point  4 :   0.5000 0.5000-0.0000  plane waves:   48404
 k-point  5 :   0.0000 0.0000 0.5000  plane waves:   48392
 k-point  6 :   0.5000 0.0000 0.5000  plane waves:   48444
 k-point  7 :   0.0000 0.5000 0.5000  plane waves:   48348
 k-point  8 :   0.5000 0.5000 0.5000  plane waves:   48352

 maximum and minimum number of plane-waves per node :     48444    48348

 maximum number of plane-waves:     48444
 maximum index in each direction: 
   IXMAX=   22   IYMAX=   22   IZMAX=   22
   IXMIN=  -23   IYMIN=  -23   IZMIN=  -22


 serial   3D FFT for wavefunctions
 parallel 3D FFT for charge:
    minimum data exchange during FFTs selected (reduces bandwidth)


 total amount of memory used by VASP MPI-rank0   349631. kBytes
=======================================================================

   base      :      30000. kBytes
   nonl-proj :     217907. kBytes
   fftplans  :       4588. kBytes
   grid      :      69719. kBytes
   one-center:       1990. kBytes
   wavefun   :      25427. kBytes
 
     INWAV:  cpu time    0.0000: real time    0.0000
 Broyden mixing: mesh for mixing (old mesh)
   NGX = 45   NGY = 45   NGZ = 45
  (NGX  =192   NGY  =192   NGZ  =180)
  gives a total of  91125 points

 initial charge density was supplied:
 number of electron     688.0000147 magnetization      -0.0000000
 keeping initial charge density in first step


--------------------------------------------------------------------------------------------------------


 Maximum index for augmentation-charges          897 (set IRDMAX)


--------------------------------------------------------------------------------------------------------


 First call to EWALD:  gamma=   0.169
 Maximum number of real-space cells 3x 3x 3
 Maximum number of reciprocal cells 3x 3x 3

    FEWALD:  cpu time    0.0027: real time    0.0031


--------------------------------------- Iteration      1(   1)  ---------------------------------------


    POTLOK:  cpu time    0.3607: real time    0.4136
    SETDIJ:  cpu time    0.0150: real time    0.0151
     EDDAV:  cpu time   84.7010: real time   85.4096
 BZINTS: Fermi energy: 14.850019;688.000000 electrons
         Band energy:***********;  BLOECHL correction: -0.013508
       DOS:  cpu time    0.0410: real time    0.0411
    --------------------------------------------
      LOOP:  cpu time   85.1178: real time   85.8794

 eigenvalue-minimisations  : 16384
 total energy-change (2. order) : 0.6035840E+04  (-0.5167662E+05)
 number of electron     688.0000147 magnetization      -0.0000000
 augmentation part      688.0000147 magnetization      -0.0000000

 Free energy of the ion-electron system (eV)
  ---------------------------------------------------
  alpha Z        PSCENC =      2356.19813611
  Ewald energy   TEWEN  =    -62470.63920707
  -Hartree energ DENC   =    -42863.09068379
  -exchange      EXHF   =         0.00000000
  -V(xc)+E(xc)   XCENC  =      3284.01368179
  PAW double counting   =    112202.23326047  -115894.98524000
  entropy T*S    EENTRO =         0.00000000
  eigenvalues    EBANDS =     -4597.95543197
  atomic energy  EATOM  =    114020.06510763
  Solvation  Ediel_sol  =         0.00000000
  ---------------------------------------------------
  free energy    TOTEN  =      6035.83962317 eV

  energy without entropy =     6035.83962317  energy(sigma->0) =     6035.83962317


--------------------------------------------------------------------------------------------------------




--------------------------------------- Iteration      1(   2)  ---------------------------------------


     EDDAV:  cpu time   94.0522: real time   94.7817
 BZINTS: Fermi energy:  5.425454;688.000000 electrons
         Band energy:***********;  BLOECHL correction:  0.000000
       DOS:  cpu time    0.0060: real time    0.0061
    --------------------------------------------
      LOOP:  cpu time   94.0582: real time   94.7878

 eigenvalue-minimisations  : 17408
 total energy-change (2. order) :-0.6123864E+04  (-0.6015424E+04)
 number of electron     688.0000147 magnetization      -0.0000000
 augmentation part      688.0000147 magnetization      -0.0000000

 Free energy of the ion-electron system (eV)
  ---------------------------------------------------
  alpha Z        PSCENC =      2356.19813611
  Ewald energy   TEWEN  =    -62470.63920707
  -Hartree energ DENC   =    -42863.09068379
  -exchange      EXHF   =         0.00000000
  -V(xc)+E(xc)   XCENC  =      3284.01368179
  PAW double counting   =    112202.23326047  -115894.98524000
  entropy T*S    EENTRO =         0.00000000
  eigenvalues    EBANDS =    -10721.81965705
  atomic energy  EATOM  =    114020.06510763
  Solvation  Ediel_sol  =         0.00000000
  ---------------------------------------------------
  free energy    TOTEN  =       -88.02460191 eV

  energy without entropy =      -88.02460191  energy(sigma->0) =      -88.02460191


--------------------------------------------------------------------------------------------------------




--------------------------------------- Iteration      1(   3)  ---------------------------------------


     EDDAV:  cpu time  168.3809: real time  169.5262
 BZINTS: Fermi energy:  4.867335;688.000000 electrons
         Band energy:***********;  BLOECHL correction:  0.000000
       DOS:  cpu time    0.0059: real time    0.0059
    --------------------------------------------
      LOOP:  cpu time  168.3867: real time  169.5321

 eigenvalue-minimisations  : 23552
 total energy-change (2. order) :-0.2534452E+03  (-0.2524744E+03)
 number of electron     688.0000147 magnetization      -0.0000000
 augmentation part      688.0000147 magnetization      -0.0000000

 Free energy of the ion-electron system (eV)
  ---------------------------------------------------
  alpha Z        PSCENC =      2356.19813611
  Ewald energy   TEWEN  =    -62470.63920707
  -Hartree energ DENC   =    -42863.09068379
  -exchange      EXHF   =         0.00000000
  -V(xc)+E(xc)   XCENC  =      3284.01368179
  PAW double counting   =    112202.23326047  -115894.98524000
  entropy T*S    EENTRO =         0.00000000
  eigenvalues    EBANDS =    -10975.26483151
  atomic energy  EATOM  =    114020.06510763
  Solvation  Ediel_sol  =         0.00000000
  ---------------------------------------------------
  free energy    TOTEN  =      -341.46977637 eV

  energy without entropy =     -341.46977637  energy(sigma->0) =     -341.46977637


--------------------------------------------------------------------------------------------------------




--------------------------------------- Iteration      1(   4)  ---------------------------------------


     EDDAV:  cpu time  103.6431: real time  104.4230
 BZINTS: Fermi energy:  4.901961;688.000000 electrons
         Band energy:***********;  BLOECHL correction:  0.000000
       DOS:  cpu time    0.0067: real time    0.0067
    --------------------------------------------
      LOOP:  cpu time  103.6498: real time  104.4297

 eigenvalue-minimisations  : 17920
 total energy-change (2. order) :-0.3455771E+01  (-0.3455626E+01)
 number of electron     688.0000147 magnetization      -0.0000000
 augmentation part      688.0000147 magnetization      -0.0000000

 Free energy of the ion-electron system (eV)
  ---------------------------------------------------
  alpha Z        PSCENC =      2356.19813611
  Ewald energy   TEWEN  =    -62470.63920707
  -Hartree energ DENC   =    -42863.09068379
  -exchange      EXHF   =         0.00000000
  -V(xc)+E(xc)   XCENC  =      3284.01368179
  PAW double counting   =    112202.23326047  -115894.98524000
  entropy T*S    EENTRO =         0.00000000
  eigenvalues    EBANDS =    -10978.72060225
  atomic energy  EATOM  =    114020.06510763
  Solvation  Ediel_sol  =         0.00000000
  ---------------------------------------------------
  free energy    TOTEN  =      -344.92554712 eV

  energy without entropy =     -344.92554712  energy(sigma->0) =     -344.92554712


--------------------------------------------------------------------------------------------------------




--------------------------------------- Iteration      1(   5)  ---------------------------------------


     EDDAV:  cpu time  163.8975: real time  165.0250
 BZINTS: Fermi energy:  4.906047;688.000000 electrons
         Band energy:***********;  BLOECHL correction:  0.000000
       DOS:  cpu time    0.0058: real time    0.0059
    CHARGE:  cpu time    1.4414: real time    1.4500
    MIXING:  cpu time    0.0026: real time    0.0026
    --------------------------------------------
      LOOP:  cpu time  165.3474: real time  166.4835

 eigenvalue-minimisations  : 23040
 total energy-change (2. order) :-0.1044365E+00  (-0.1044359E+00)
 number of electron     688.0000368 magnetization      -0.0000000
 augmentation part      283.5793798 magnetization      -0.0000000

 Broyden mixing:
  rms(total) = 0.31395E+01    rms(broyden)= 0.31390E+01
  rms(prec ) = 0.35282E+01
  weight for this iteration     100.00

 Free energy of the ion-electron system (eV)
  ---------------------------------------------------
  alpha Z        PSCENC =      2356.19813611
  Ewald energy   TEWEN  =    -62470.63920707
  -Hartree energ DENC   =    -42863.09068379
  -exchange      EXHF   =         0.00000000
  -V(xc)+E(xc)   XCENC  =      3284.01368179
  PAW double counting   =    112202.23326047  -115894.98524000
  entropy T*S    EENTRO =         0.00000000
  eigenvalues    EBANDS =    -10978.82503879
  atomic energy  EATOM  =    114020.06510763
  Solvation  Ediel_sol  =         0.00000000
  ---------------------------------------------------
  free energy    TOTEN  =      -345.02998366 eV

  energy without entropy =     -345.02998366  energy(sigma->0) =     -345.02998366


--------------------------------------------------------------------------------------------------------




--------------------------------------- Iteration      1(   6)  ---------------------------------------


    POTLOK:  cpu time    0.1474: real time    0.1497
    SETDIJ:  cpu time    0.0130: real time    0.0130
     EDDAV:  cpu time  174.4164: real time  175.6284
 BZINTS: Fermi energy:  4.916889;688.000000 electrons
         Band energy:***********;  BLOECHL correction:  0.000000
       DOS:  cpu time    0.0066: real time    0.0067
    CHARGE:  cpu time    1.3952: real time    1.4036
    MIXING:  cpu time    0.0026: real time    0.1764
    --------------------------------------------
      LOOP:  cpu time  175.9813: real time  177.3779

 eigenvalue-minimisations  : 25600
 total energy-change (2. order) : 0.1281305E+02  (-0.1182570E+01)
 number of electron     688.0000366 magnetization      -0.0000000
 augmentation part      281.3329090 magnetization      -0.0000000

 Broyden mixing:
  rms(total) = 0.17104E+01    rms(broyden)= 0.17104E+01
  rms(prec ) = 0.19187E+01
  weight for this iteration     100.00

 eigenvalues of (default mixing * dielectric matrix)
  average eigenvalue GAMMA=   0.8485
  0.8485

 Free energy of the ion-electron system (eV)
  ---------------------------------------------------
  alpha Z        PSCENC =      2356.19813611
  Ewald energy   TEWEN  =    -62470.63920707
  -Hartree energ DENC   =    -42989.28616329
  -exchange      EXHF   =         0.00000000
  -V(xc)+E(xc)   XCENC  =      3286.98974456
  PAW double counting   =    113571.19248448  -117280.18761409
  entropy T*S    EENTRO =         0.00000000
  eigenvalues    EBANDS =    -10826.54942685
  atomic energy  EATOM  =    114020.06510763
  Solvation  Ediel_sol  =         0.00000000
  ---------------------------------------------------
  free energy    TOTEN  =      -332.21693852 eV

  energy without entropy =     -332.21693852  energy(sigma->0) =     -332.21693852


--------------------------------------------------------------------------------------------------------




--------------------------------------- Iteration      1(   7)  ---------------------------------------


    POTLOK:  cpu time    0.1504: real time    0.1514
    SETDIJ:  cpu time    0.0129: real time    0.0130
     EDDAV:  cpu time  164.5111: real time  165.6516
 BZINTS: Fermi energy:  4.971168;688.000000 electrons
         Band energy:***********;  BLOECHL correction:  0.000000
       DOS:  cpu time    0.0064: real time    0.0065
    CHARGE:  cpu time    1.3927: real time    1.4017
    MIXING:  cpu time    0.0017: real time    0.0134
    --------------------------------------------
      LOOP:  cpu time  166.0752: real time  167.2374

 eigenvalue-minimisations  : 23552
 total energy-change (2. order) : 0.3685179E+01  (-0.9444454E+00)
 number of electron     688.0000368 magnetization      -0.0000000
 augmentation part      282.9747166 magnetization      -0.0000000

 Broyden mixing:
  rms(total) = 0.13459E+01    rms(broyden)= 0.13459E+01
  rms(prec ) = 0.14255E+01
  weight for this iteration     100.00

 eigenvalues of (default mixing * dielectric matrix)
  average eigenvalue GAMMA=   0.9330
  1.3653  0.5007

 Free energy of the ion-electron system (eV)
  ---------------------------------------------------
  alpha Z        PSCENC =      2356.19813611
  Ewald energy   TEWEN  =    -62470.63920707
  -Hartree energ DENC   =    -42911.38287944
  -exchange      EXHF   =         0.00000000
  -V(xc)+E(xc)   XCENC  =      3286.21631966
  PAW double counting   =    113248.30778083  -116935.48942401
  entropy T*S    EENTRO =         0.00000000
  eigenvalues    EBANDS =    -10921.80759276
  atomic energy  EATOM  =    114020.06510763
  Solvation  Ediel_sol  =         0.00000000
  ---------------------------------------------------
  free energy    TOTEN  =      -328.53175905 eV

  energy without entropy =     -328.53175905  energy(sigma->0) =     -328.53175905


--------------------------------------------------------------------------------------------------------




--------------------------------------- Iteration      1(   8)  ---------------------------------------


    POTLOK:  cpu time    0.1509: real time    0.1519
    SETDIJ:  cpu time    0.0129: real time    0.0130
     EDDAV:  cpu time  156.0573: real time  157.1462
 BZINTS: Fermi energy:  4.968584;688.000000 electrons
         Band energy:***********;  BLOECHL correction:  0.000000
       DOS:  cpu time    0.0065: real time    0.0066
    CHARGE:  cpu time    1.4043: real time    1.4128
    MIXING:  cpu time    0.0016: real time    0.0016
    --------------------------------------------
      LOOP:  cpu time  157.6335: real time  158.7320

 eigenvalue-minimisations  : 22784
 total energy-change (2. order) : 0.4617110E+00  (-0.4154690E+00)
 number of electron     688.0000368 magnetization      -0.0000000
 augmentation part      282.5744512 magnetization      -0.0000000

 Broyden mixing:
  rms(total) = 0.56233E+00    rms(broyden)= 0.56232E+00
  rms(prec ) = 0.60373E+00
  weight for this iteration     100.00

 eigenvalues of (default mixing * dielectric matrix)
  average eigenvalue GAMMA=   1.0212
  1.8998  0.7017  0.4620

 Free energy of the ion-electron system (eV)
  ---------------------------------------------------
  alpha Z        PSCENC =      2356.19813611
  Ewald energy   TEWEN  =    -62470.63920707
  -Hartree energ DENC   =    -42925.45059081
  -exchange      EXHF   =         0.00000000
  -V(xc)+E(xc)   XCENC  =      3285.76410560
  PAW double counting   =    112951.50538253  -116644.04966087
  entropy T*S    EENTRO =         0.00000000
  eigenvalues    EBANDS =    -10901.46332119
  atomic energy  EATOM  =    114020.06510763
  Solvation  Ediel_sol  =         0.00000000
  ---------------------------------------------------
  free energy    TOTEN  =      -328.07004807 eV

  energy without entropy =     -328.07004807  energy(sigma->0) =     -328.07004807


--------------------------------------------------------------------------------------------------------




--------------------------------------- Iteration      1(   9)  ---------------------------------------


    POTLOK:  cpu time    0.1550: real time    0.1561
    SETDIJ:  cpu time    0.0132: real time    0.0132
     EDDAV:  cpu time  155.6730: real time  156.7543
 BZINTS: Fermi energy:  5.003606;688.000000 electrons
         Band energy:***********;  BLOECHL correction:  0.000000
       DOS:  cpu time    0.0065: real time    0.0066
    CHARGE:  cpu time    1.3945: real time    1.4030
    MIXING:  cpu time    0.0016: real time    0.0016
    --------------------------------------------
      LOOP:  cpu time  157.2439: real time  158.3348

 eigenvalue-minimisations  : 22272
 total energy-change (2. order) : 0.2683034E-01  (-0.1576849E+00)
 number of electron     688.0000367 magnetization      -0.0000000
 augmentation part      282.1476347 magnetization      -0.0000000

 Broyden mixing:
  rms(total) = 0.31998E+00    rms(broyden)= 0.31997E+00
  rms(prec ) = 0.36032E+00
  weight for this iteration     100.00

 eigenvalues of (default mixing * dielectric matrix)
  average eigenvalue GAMMA=   0.9610
  1.8832  0.8874  0.6499  0.4236

 Free energy of the ion-electron system (eV)
  ---------------------------------------------------
  alpha Z        PSCENC =      2356.19813611
  Ewald energy   TEWEN  =    -62470.63920707
  -Hartree energ DENC   =    -42964.32020520
  -exchange      EXHF   =         0.00000000
  -V(xc)+E(xc)   XCENC  =      3287.03582854
  PAW double counting   =    112816.34570212  -116512.60880799
  entropy T*S    EENTRO =         0.00000000
  eigenvalues    EBANDS =    -10860.11977187
  atomic energy  EATOM  =    114020.06510763
  Solvation  Ediel_sol  =         0.00000000
  ---------------------------------------------------
  free energy    TOTEN  =      -328.04321774 eV

  energy without entropy =     -328.04321774  energy(sigma->0) =     -328.04321774


--------------------------------------------------------------------------------------------------------




--------------------------------------- Iteration      1(  10)  ---------------------------------------


    POTLOK:  cpu time    0.1529: real time    0.1539
    SETDIJ:  cpu time    0.0135: real time    0.0136
     EDDAV:  cpu time  146.9571: real time  147.9846
 BZINTS: Fermi energy:  4.975466;688.000000 electrons
         Band energy:***********;  BLOECHL correction:  0.000000
       DOS:  cpu time    0.0066: real time    0.0066
    CHARGE:  cpu time    1.4175: real time    1.4260
    MIXING:  cpu time    0.0016: real time    0.0016
    --------------------------------------------
      LOOP:  cpu time  148.5492: real time  149.5863

 eigenvalue-minimisations  : 21504
 total energy-change (2. order) :-0.2269377E-02  (-0.9327234E-01)
 number of electron     688.0000368 magnetization       0.0000000
 augmentation part      282.1385455 magnetization       0.0000000

 Broyden mixing:
  rms(total) = 0.24859E+00    rms(broyden)= 0.24858E+00
  rms(prec ) = 0.28594E+00
  weight for this iteration     100.00

 eigenvalues of (default mixing * dielectric matrix)
  average eigenvalue GAMMA=   0.9901
  1.7138  1.7138  0.6657  0.5354  0.3215

 Free energy of the ion-electron system (eV)
  ---------------------------------------------------
  alpha Z        PSCENC =      2356.19813611
  Ewald energy   TEWEN  =    -62470.63920707
  -Hartree energ DENC   =    -42950.05438900
  -exchange      EXHF   =         0.00000000
  -V(xc)+E(xc)   XCENC  =      3286.29447411
  PAW double counting   =    112647.11172199  -116341.45990238
  entropy T*S    EENTRO =         0.00000000
  eigenvalues    EBANDS =    -10875.56142850
  atomic energy  EATOM  =    114020.06510763
  Solvation  Ediel_sol  =         0.00000000
  ---------------------------------------------------
  free energy    TOTEN  =      -328.04548711 eV

  energy without entropy =     -328.04548711  energy(sigma->0) =     -328.04548711


--------------------------------------------------------------------------------------------------------




--------------------------------------- Iteration      1(  11)  ---------------------------------------


    POTLOK:  cpu time    0.1501: real time    0.1510
    SETDIJ:  cpu time    0.0130: real time    0.0130
     EDDAV:  cpu time  146.9823: real time  148.0054
 BZINTS: Fermi energy:  4.980356;688.000000 electrons
         Band energy:***********;  BLOECHL correction:  0.000000
       DOS:  cpu time    0.0066: real time    0.0066
    CHARGE:  cpu time    1.4218: real time    1.4304
    MIXING:  cpu time    0.0019: real time    0.0031
    --------------------------------------------
      LOOP:  cpu time  148.5756: real time  149.6095

 eigenvalue-minimisations  : 22016
 total energy-change (2. order) : 0.7356332E-02  (-0.2032160E-01)
 number of electron     688.0000368 magnetization       0.0000000
 augmentation part      282.2557056 magnetization       0.0000000

 Broyden mixing:
  rms(total) = 0.80594E-01    rms(broyden)= 0.80592E-01
  rms(prec ) = 0.83009E-01
  weight for this iteration     100.00

 eigenvalues of (default mixing * dielectric matrix)
  average eigenvalue GAMMA=   1.1216
  2.1451  2.1451  0.8623  0.6225  0.6225  0.3319

 Free energy of the ion-electron system (eV)
  ---------------------------------------------------
  alpha Z        PSCENC =      2356.19813611
  Ewald energy   TEWEN  =    -62470.63920707
  -Hartree energ DENC   =    -42948.79214659
  -exchange      EXHF   =         0.00000000
  -V(xc)+E(xc)   XCENC  =      3286.45293456
  PAW double counting   =    112456.48685352  -116149.80677570
  entropy T*S    EENTRO =         0.00000000
  eigenvalues    EBANDS =    -10878.00303323
  atomic energy  EATOM  =    114020.06510763
  Solvation  Ediel_sol  =         0.00000000
  ---------------------------------------------------
  free energy    TOTEN  =      -328.03813078 eV

  energy without entropy =     -328.03813078  energy(sigma->0) =     -328.03813078


--------------------------------------------------------------------------------------------------------




--------------------------------------- Iteration      1(  12)  ---------------------------------------


    POTLOK:  cpu time    0.1504: real time    0.1515
    SETDIJ:  cpu time    0.0128: real time    0.0129
     EDDAV:  cpu time  182.5556: real time  183.8054
 BZINTS: Fermi energy:  4.982253;688.000000 electrons
         Band energy:***********;  BLOECHL correction:  0.000000
       DOS:  cpu time    0.0066: real time    0.0066
    CHARGE:  cpu time    1.3942: real time    1.4026
    MIXING:  cpu time    0.0017: real time    0.0017
    --------------------------------------------
      LOOP:  cpu time  184.1213: real time  185.3806

 eigenvalue-minimisations  : 25600
 total energy-change (2. order) :-0.9835542E-02  (-0.3912065E-02)
 number of electron     688.0000368 magnetization       0.0000000
 augmentation part      282.2106450 magnetization       0.0000000

 Broyden mixing:
  rms(total) = 0.39237E-01    rms(broyden)= 0.39234E-01
  rms(prec ) = 0.44268E-01
  weight for this iteration     100.00

 eigenvalues of (default mixing * dielectric matrix)
  average eigenvalue GAMMA=   1.1250
  2.2660  2.2660  1.0494  0.6912  0.6341  0.6341  0.3346

 Free energy of the ion-electron system (eV)
  ---------------------------------------------------
  alpha Z        PSCENC =      2356.19813611
  Ewald energy   TEWEN  =    -62470.63920707
  -Hartree energ DENC   =    -42953.24361106
  -exchange      EXHF   =         0.00000000
  -V(xc)+E(xc)   XCENC  =      3286.55068489
  PAW double counting   =    112333.31481084  -116027.48700461
  entropy T*S    EENTRO =         0.00000000
  eigenvalues    EBANDS =    -10872.80688306
  atomic energy  EATOM  =    114020.06510763
  Solvation  Ediel_sol  =         0.00000000
  ---------------------------------------------------
  free energy    TOTEN  =      -328.04796632 eV

  energy without entropy =     -328.04796632  energy(sigma->0) =     -328.04796632


--------------------------------------------------------------------------------------------------------




--------------------------------------- Iteration      1(  13)  ---------------------------------------


    POTLOK:  cpu time    0.1503: real time    0.1513
    SETDIJ:  cpu time    0.0129: real time    0.0130
     EDDAV:  cpu time  124.3076: real time  125.1956
 BZINTS: Fermi energy:  4.980481;688.000000 electrons
         Band energy:***********;  BLOECHL correction:  0.000000
       DOS:  cpu time    0.0066: real time    0.0066
    CHARGE:  cpu time    1.3917: real time    1.4007
    MIXING:  cpu time    0.0018: real time    0.0018
    --------------------------------------------
      LOOP:  cpu time  125.8709: real time  126.7690

 eigenvalue-minimisations  : 19456
 total energy-change (2. order) :-0.1390048E-02  (-0.8625680E-03)
 number of electron     688.0000368 magnetization       0.0000000
 augmentation part      282.2244277 magnetization       0.0000000

 Broyden mixing:
  rms(total) = 0.17669E-01    rms(broyden)= 0.17668E-01
  rms(prec ) = 0.19061E-01
  weight for this iteration     100.00

 eigenvalues of (default mixing * dielectric matrix)
  average eigenvalue GAMMA=   1.1190
  2.2942  2.2942  1.0664  1.0664  0.6739  0.6110  0.6110  0.3351

 Free energy of the ion-electron system (eV)
  ---------------------------------------------------
  alpha Z        PSCENC =      2356.19813611
  Ewald energy   TEWEN  =    -62470.63920707
  -Hartree energ DENC   =    -42951.31977216
  -exchange      EXHF   =         0.00000000
  -V(xc)+E(xc)   XCENC  =      3286.49703131
  PAW double counting   =    112295.47270068  -115989.23018077
  entropy T*S    EENTRO =         0.00000000
  eigenvalues    EBANDS =    -10875.09317209
  atomic energy  EATOM  =    114020.06510763
  Solvation  Ediel_sol  =         0.00000000
  ---------------------------------------------------
  free energy    TOTEN  =      -328.04935637 eV

  energy without entropy =     -328.04935637  energy(sigma->0) =     -328.04935637


--------------------------------------------------------------------------------------------------------




--------------------------------------- Iteration      1(  14)  ---------------------------------------


    POTLOK:  cpu time    0.1505: real time    0.1515
    SETDIJ:  cpu time    0.0128: real time    0.0129
     EDDAV:  cpu time  157.2227: real time  158.3062
 BZINTS: Fermi energy:  4.980916;688.000000 electrons
         Band energy:***********;  BLOECHL correction:  0.000000
       DOS:  cpu time    0.0066: real time    0.0066
    CHARGE:  cpu time    1.3940: real time    1.4024
    MIXING:  cpu time    0.0018: real time    0.0018
    --------------------------------------------
      LOOP:  cpu time  158.7884: real time  159.8814

 eigenvalue-minimisations  : 22272
 total energy-change (2. order) :-0.8293770E-03  (-0.2290365E-03)
 number of electron     688.0000368 magnetization       0.0000000
 augmentation part      282.2217892 magnetization       0.0000000

 Broyden mixing:
  rms(total) = 0.10206E-01    rms(broyden)= 0.10205E-01
  rms(prec ) = 0.10701E-01
  weight for this iteration     100.00

 eigenvalues of (default mixing * dielectric matrix)
  average eigenvalue GAMMA=   1.1926
  2.4372  2.4372  1.4636  1.4636  0.3350  0.6124  0.6124  0.7241  0.6476

 Free energy of the ion-electron system (eV)
  ---------------------------------------------------
  alpha Z        PSCENC =      2356.19813611
  Ewald energy   TEWEN  =    -62470.63920707
  -Hartree energ DENC   =    -42951.84811430
  -exchange      EXHF   =         0.00000000
  -V(xc)+E(xc)   XCENC  =      3286.51704509
  PAW double counting   =    112280.30514828  -115974.24491934
  entropy T*S    EENTRO =         0.00000000
  eigenvalues    EBANDS =    -10874.40338215
  atomic energy  EATOM  =    114020.06510763
  Solvation  Ediel_sol  =         0.00000000
  ---------------------------------------------------
  free energy    TOTEN  =      -328.05018575 eV

  energy without entropy =     -328.05018575  energy(sigma->0) =     -328.05018575


--------------------------------------------------------------------------------------------------------




--------------------------------------- Iteration      1(  15)  ---------------------------------------


    POTLOK:  cpu time    0.1488: real time    0.1499
    SETDIJ:  cpu time    0.0129: real time    0.0129
     EDDAV:  cpu time  149.9003: real time  150.9462
 BZINTS: Fermi energy:  4.981005;688.000000 electrons
         Band energy:***********;  BLOECHL correction:  0.000000
       DOS:  cpu time    0.0066: real time    0.0066
    CHARGE:  cpu time    1.3936: real time    1.4020
    MIXING:  cpu time    0.0019: real time    0.0019
    --------------------------------------------
      LOOP:  cpu time  151.4641: real time  152.5195

 eigenvalue-minimisations  : 22016
 total energy-change (2. order) :-0.4622706E-03  (-0.1205019E-03)
 number of electron     688.0000368 magnetization      -0.0000000
 augmentation part      282.2189673 magnetization      -0.0000000

 Broyden mixing:
  rms(total) = 0.54790E-02    rms(broyden)= 0.54784E-02
  rms(prec ) = 0.58299E-02
  weight for this iteration     100.00

 eigenvalues of (default mixing * dielectric matrix)
  average eigenvalue GAMMA=   1.2140
  2.8363  2.2393  1.8814  1.1463  1.1463  0.3350  0.6108  0.6108  0.7063  0.6274

 Free energy of the ion-electron system (eV)
  ---------------------------------------------------
  alpha Z        PSCENC =      2356.19813611
  Ewald energy   TEWEN  =    -62470.63920707
  -Hartree energ DENC   =    -42951.99711827
  -exchange      EXHF   =         0.00000000
  -V(xc)+E(xc)   XCENC  =      3286.51813654
  PAW double counting   =    112272.87985618  -115966.82167030
  entropy T*S    EENTRO =         0.00000000
  eigenvalues    EBANDS =    -10874.25388884
  atomic energy  EATOM  =    114020.06510763
  Solvation  Ediel_sol  =         0.00000000
  ---------------------------------------------------
  free energy    TOTEN  =      -328.05064802 eV

  energy without entropy =     -328.05064802  energy(sigma->0) =     -328.05064802


--------------------------------------------------------------------------------------------------------




--------------------------------------- Iteration      1(  16)  ---------------------------------------


    POTLOK:  cpu time    0.1497: real time    0.1507
    SETDIJ:  cpu time    0.0130: real time    0.0130
     EDDAV:  cpu time  132.2105: real time  133.1555
 BZINTS: Fermi energy:  4.981005;688.000000 electrons
         Band energy:***********;  BLOECHL correction:  0.000000
       DOS:  cpu time    0.0096: real time    0.0096
    CHARGE:  cpu time    1.7318: real time    1.7434
    MIXING:  cpu time    0.0023: real time    0.0028
    --------------------------------------------
      LOOP:  cpu time  134.1169: real time  135.0751

 eigenvalue-minimisations  : 19712
 total energy-change (2. order) :-0.1727601E-03  (-0.5134417E-04)
 number of electron     688.0000368 magnetization       0.0000000
 augmentation part      282.2232903 magnetization       0.0000000

 Broyden mixing:
  rms(total) = 0.38600E-02    rms(broyden)= 0.38596E-02
  rms(prec ) = 0.41809E-02
  weight for this iteration     100.00

 eigenvalues of (default mixing * dielectric matrix)
  average eigenvalue GAMMA=   1.2894
  3.2972  2.1709  2.1709  1.4173  1.4173  0.3350  0.8314  0.6074  0.6074  0.7085
  0.6204

 Free energy of the ion-electron system (eV)
  ---------------------------------------------------
  alpha Z        PSCENC =      2356.19813611
  Ewald energy   TEWEN  =    -62470.63920707
  -Hartree energ DENC   =    -42951.85088852
  -exchange      EXHF   =         0.00000000
  -V(xc)+E(xc)   XCENC  =      3286.51677822
  PAW double counting   =    112271.16051815  -115965.07735450
  entropy T*S    EENTRO =         0.00000000
  eigenvalues    EBANDS =    -10874.42391079
  atomic energy  EATOM  =    114020.06510763
  Solvation  Ediel_sol  =         0.00000000
  ---------------------------------------------------
  free energy    TOTEN  =      -328.05082078 eV

  energy without entropy =     -328.05082078  energy(sigma->0) =     -328.05082078


--------------------------------------------------------------------------------------------------------




--------------------------------------- Iteration      1(  17)  ---------------------------------------


    POTLOK:  cpu time    0.1679: real time    0.1726
    SETDIJ:  cpu time    0.0166: real time    0.0167
     EDDAV:  cpu time  145.7659: real time  146.7825
 BZINTS: Fermi energy:  4.980906;688.000000 electrons
         Band energy:***********;  BLOECHL correction:  0.000000
       DOS:  cpu time    0.0066: real time    0.0066
    CHARGE:  cpu time    1.3958: real time    1.4043
    MIXING:  cpu time    0.0021: real time    0.0021
    --------------------------------------------
      LOOP:  cpu time  147.3549: real time  148.3849

 eigenvalue-minimisations  : 20992
 total energy-change (2. order) :-0.8584533E-04  (-0.4699500E-04)
 number of electron     688.0000368 magnetization       0.0000000
 augmentation part      282.2206847 magnetization       0.0000000

 Broyden mixing:
  rms(total) = 0.18900E-02    rms(broyden)= 0.18893E-02
  rms(prec ) = 0.20459E-02
  weight for this iteration     100.00

 eigenvalues of (default mixing * dielectric matrix)
  average eigenvalue GAMMA=   1.3764
  4.2112  2.3519  2.3519  1.5127  1.5127  1.0122  0.3350  0.6063  0.6063  0.7213
  0.6829  0.6129

 Free energy of the ion-electron system (eV)
  ---------------------------------------------------
  alpha Z        PSCENC =      2356.19813611
  Ewald energy   TEWEN  =    -62470.63920707
  -Hartree energ DENC   =    -42951.92231321
  -exchange      EXHF   =         0.00000000
  -V(xc)+E(xc)   XCENC  =      3286.51648553
  PAW double counting   =    112273.69781407  -115967.62139163
  entropy T*S    EENTRO =         0.00000000
  eigenvalues    EBANDS =    -10874.34553805
  atomic energy  EATOM  =    114020.06510763
  Solvation  Ediel_sol  =         0.00000000
  ---------------------------------------------------
  free energy    TOTEN  =      -328.05090663 eV

  energy without entropy =     -328.05090663  energy(sigma->0) =     -328.05090663


--------------------------------------------------------------------------------------------------------




--------------------------------------- Iteration      1(  18)  ---------------------------------------


    POTLOK:  cpu time    0.1484: real time    0.1501
    SETDIJ:  cpu time    0.0130: real time    0.0130
     EDDAV:  cpu time  131.7125: real time  132.6489
 BZINTS: Fermi energy:  4.980877;688.000000 electrons
         Band energy:***********;  BLOECHL correction:  0.000000
       DOS:  cpu time    0.0066: real time    0.0067
    CHARGE:  cpu time    1.3928: real time    1.4010
    MIXING:  cpu time    0.0020: real time    0.0020
    --------------------------------------------
      LOOP:  cpu time  133.2753: real time  134.2218

 eigenvalue-minimisations  : 19968
 total energy-change (2. order) :-0.1636015E-04  (-0.1223727E-04)
 number of electron     688.0000368 magnetization       0.0000000
 augmentation part      282.2215569 magnetization       0.0000000

 Broyden mixing:
  rms(total) = 0.94398E-03    rms(broyden)= 0.94352E-03
  rms(prec ) = 0.10171E-02
  weight for this iteration     100.00

 eigenvalues of (default mixing * dielectric matrix)
  average eigenvalue GAMMA=   1.3574
  4.3255  2.3986  2.3986  1.7043  1.2031  1.2031  0.3350  0.8901  0.6049  0.6049
  0.7237  0.6439  0.6107

 Free energy of the ion-electron system (eV)
  ---------------------------------------------------
  alpha Z        PSCENC =      2356.19813611
  Ewald energy   TEWEN  =    -62470.63920707
  -Hartree energ DENC   =    -42951.88427069
  -exchange      EXHF   =         0.00000000
  -V(xc)+E(xc)   XCENC  =      3286.51555737
  PAW double counting   =    112275.52024460  -115969.44018824
  entropy T*S    EENTRO =         0.00000000
  eigenvalues    EBANDS =    -10874.38630268
  atomic energy  EATOM  =    114020.06510763
  Solvation  Ediel_sol  =         0.00000000
  ---------------------------------------------------
  free energy    TOTEN  =      -328.05092299 eV

  energy without entropy =     -328.05092299  energy(sigma->0) =     -328.05092299


--------------------------------------------------------------------------------------------------------




--------------------------------------- Iteration      1(  19)  ---------------------------------------


    POTLOK:  cpu time    0.1496: real time    0.1505
    SETDIJ:  cpu time    0.0128: real time    0.0129
     EDDAV:  cpu time  135.0827: real time  136.0363
 BZINTS: Fermi energy:  4.980894;688.000000 electrons
         Band energy:***********;  BLOECHL correction:  0.000000
       DOS:  cpu time    0.0067: real time    0.0067
    CHARGE:  cpu time    1.3953: real time    1.4037
    MIXING:  cpu time    0.0022: real time    0.0022
    --------------------------------------------
      LOOP:  cpu time  136.6492: real time  137.6122

 eigenvalue-minimisations  : 20224
 total energy-change (2. order) :-0.1170745E-05  (-0.4917866E-06)
 number of electron     688.0000368 magnetization       0.0000000
 augmentation part      282.2213963 magnetization       0.0000000

 Broyden mixing:
[...]
   -.420E+02 0.934E+01 -.749E+00   0.428E+02 -.940E+01 0.757E+00   -.860E+00 0.596E-01 -.873E-02   0.301E-05 -.273E-04 0.104E-04
   -.420E+02 0.934E+01 -.749E+00   0.428E+02 -.940E+01 0.757E+00   -.860E+00 0.596E-01 -.873E-02   0.297E-05 -.273E-04 0.104E-04
   -.420E+02 0.934E+01 -.749E+00   0.428E+02 -.940E+01 0.757E+00   -.860E+00 0.596E-01 -.873E-02   0.301E-05 -.274E-04 0.104E-04
   -.420E+02 0.934E+01 -.749E+00   0.428E+02 -.940E+01 0.757E+00   -.860E+00 0.596E-01 -.873E-02   0.297E-05 -.274E-04 0.104E-04
   0.420E+02 0.934E+01 0.749E+00   -.428E+02 -.940E+01 -.757E+00   0.860E+00 0.596E-01 0.873E-02   -.299E-05 -.273E-04 -.104E-04
   0.420E+02 0.934E+01 0.749E+00   -.428E+02 -.940E+01 -.757E+00   0.860E+00 0.596E-01 0.873E-02   -.299E-05 -.273E-04 -.104E-04
   0.420E+02 0.934E+01 0.749E+00   -.428E+02 -.940E+01 -.757E+00   0.860E+00 0.596E-01 0.873E-02   -.299E-05 -.273E-04 -.104E-04
   0.420E+02 0.934E+01 0.749E+00   -.428E+02 -.940E+01 -.757E+00   0.860E+00 0.596E-01 0.873E-02   -.299E-05 -.273E-04 -.104E-04
   0.544E-07 -.354E+02 0.108E-06   0.782E-13 0.362E+02 0.249E-13   -.118E-23 -.809E+00 0.207E-24   -.159E-09 -.274E-04 -.244E-08
   0.544E-07 -.354E+02 0.108E-06   0.870E-13 0.362E+02 0.657E-13   -.901E-24 -.809E+00 0.207E-24   0.154E-09 -.274E-04 0.244E-08
   0.544E-07 -.354E+02 0.108E-06   0.853E-13 0.362E+02 0.568E-13   0.108E-23 -.809E+00 -.155E-24   -.159E-09 -.275E-04 -.244E-08
   0.544E-07 -.354E+02 0.108E-06   0.121E-12 0.362E+02 0.533E-13   0.827E-24 -.809E+00 0.827E-24   0.154E-09 -.275E-04 0.244E-08
   -.197E-09 0.491E+02 0.450E-08   -.284E-13 -.501E+02 -.773E-13   -.120E-23 0.918E+00 0.186E-23   0.239E-07 -.158E-04 -.307E-09
   -.197E-09 0.491E+02 0.450E-08   -.462E-13 -.501E+02 -.746E-13   0.992E-24 0.918E+00 0.000E+00   -.239E-07 -.158E-04 0.308E-09
   -.197E-09 0.491E+02 0.450E-08   0.711E-14 -.501E+02 -.117E-12   0.213E-24 0.918E+00 -.827E-24   0.239E-07 -.158E-04 -.307E-09
   -.197E-09 0.491E+02 0.450E-08   -.284E-13 -.501E+02 -.853E-13   -.144E-23 0.918E+00 0.620E-24   -.239E-07 -.158E-04 0.308E-09
   0.178E+01 -.866E+01 0.631E+00   -.176E+01 0.831E+01 -.643E+00   -.211E-01 0.348E+00 0.893E-02   0.204E-04 -.109E-03 -.239E-05
   0.178E+01 -.866E+01 0.631E+00   -.176E+01 0.831E+01 -.643E+00   -.211E-01 0.348E+00 0.893E-02   0.203E-04 -.109E-03 -.240E-05
   0.178E+01 -.866E+01 0.631E+00   -.176E+01 0.831E+01 -.643E+00   -.211E-01 0.348E+00 0.893E-02   0.204E-04 -.110E-03 -.239E-05
   0.178E+01 -.866E+01 0.631E+00   -.176E+01 0.831E+01 -.643E+00   -.211E-01 0.348E+00 0.893E-02   0.203E-04 -.110E-03 -.239E-05
   -.178E+01 -.866E+01 -.631E+00   0.176E+01 0.831E+01 0.643E+00   0.211E-01 0.348E+00 -.893E-02   -.203E-04 -.109E-03 0.239E-05
   -.178E+01 -.866E+01 -.631E+00   0.176E+01 0.831E+01 0.643E+00   0.211E-01 0.348E+00 -.893E-02   -.204E-04 -.109E-03 0.240E-05
   -.178E+01 -.866E+01 -.631E+00   0.176E+01 0.831E+01 0.643E+00   0.211E-01 0.348E+00 -.893E-02   -.203E-04 -.110E-03 0.238E-05
   -.178E+01 -.866E+01 -.631E+00   0.176E+01 0.831E+01 0.643E+00   0.211E-01 0.348E+00 -.893E-02   -.204E-04 -.110E-03 0.239E-05
   0.178E+01 -.866E+01 0.631E+00   -.176E+01 0.831E+01 -.643E+00   -.211E-01 0.348E+00 0.893E-02   0.204E-04 -.109E-03 -.239E-05
   0.178E+01 -.866E+01 0.631E+00   -.176E+01 0.831E+01 -.643E+00   -.211E-01 0.348E+00 0.893E-02   0.203E-04 -.109E-03 -.240E-05
   0.178E+01 -.866E+01 0.631E+00   -.176E+01 0.831E+01 -.643E+00   -.211E-01 0.348E+00 0.893E-02   0.204E-04 -.110E-03 -.238E-05
   0.178E+01 -.866E+01 0.631E+00   -.176E+01 0.831E+01 -.643E+00   -.211E-01 0.348E+00 0.893E-02   0.203E-04 -.110E-03 -.239E-05
   -.178E+01 -.866E+01 -.631E+00   0.176E+01 0.831E+01 0.643E+00   0.211E-01 0.348E+00 -.893E-02   -.203E-04 -.109E-03 0.239E-05
   -.178E+01 -.866E+01 -.631E+00   0.176E+01 0.831E+01 0.643E+00   0.211E-01 0.348E+00 -.893E-02   -.204E-04 -.109E-03 0.240E-05
   -.178E+01 -.866E+01 -.631E+00   0.176E+01 0.831E+01 0.643E+00   0.211E-01 0.348E+00 -.893E-02   -.203E-04 -.110E-03 0.238E-05
   -.178E+01 -.866E+01 -.631E+00   0.176E+01 0.831E+01 0.643E+00   0.211E-01 0.348E+00 -.893E-02   -.204E-04 -.110E-03 0.239E-05
   -.226E+01 -.846E+01 0.658E+00   0.222E+01 0.800E+01 -.676E+00   0.447E-01 0.461E+00 0.115E-01   0.293E-04 -.402E-04 0.140E-04
   -.226E+01 -.846E+01 0.658E+00   0.222E+01 0.800E+01 -.676E+00   0.447E-01 0.461E+00 0.115E-01   0.292E-04 -.402E-04 0.140E-04
   -.226E+01 -.846E+01 0.658E+00   0.222E+01 0.800E+01 -.676E+00   0.447E-01 0.461E+00 0.115E-01   0.293E-04 -.403E-04 0.140E-04
   -.226E+01 -.846E+01 0.658E+00   0.222E+01 0.800E+01 -.676E+00   0.447E-01 0.461E+00 0.115E-01   0.292E-04 -.403E-04 0.140E-04
   0.226E+01 -.846E+01 -.658E+00   -.222E+01 0.800E+01 0.676E+00   -.447E-01 0.461E+00 -.115E-01   -.292E-04 -.402E-04 -.140E-04
   0.226E+01 -.846E+01 -.658E+00   -.222E+01 0.800E+01 0.676E+00   -.447E-01 0.461E+00 -.115E-01   -.293E-04 -.402E-04 -.140E-04
   0.226E+01 -.846E+01 -.658E+00   -.222E+01 0.800E+01 0.676E+00   -.447E-01 0.461E+00 -.115E-01   -.292E-04 -.403E-04 -.140E-04
   0.226E+01 -.846E+01 -.658E+00   -.222E+01 0.800E+01 0.676E+00   -.447E-01 0.461E+00 -.115E-01   -.293E-04 -.403E-04 -.140E-04
   -.226E+01 -.846E+01 0.658E+00   0.222E+01 0.800E+01 -.676E+00   0.447E-01 0.461E+00 0.115E-01   0.293E-04 -.402E-04 0.140E-04
   -.226E+01 -.846E+01 0.658E+00   0.222E+01 0.800E+01 -.676E+00   0.447E-01 0.461E+00 0.115E-01   0.292E-04 -.402E-04 0.140E-04
   -.226E+01 -.846E+01 0.658E+00   0.222E+01 0.800E+01 -.676E+00   0.447E-01 0.461E+00 0.115E-01   0.293E-04 -.403E-04 0.140E-04
   -.226E+01 -.846E+01 0.658E+00   0.222E+01 0.800E+01 -.676E+00   0.447E-01 0.461E+00 0.115E-01   0.292E-04 -.403E-04 0.140E-04
   0.226E+01 -.846E+01 -.658E+00   -.222E+01 0.800E+01 0.676E+00   -.447E-01 0.461E+00 -.115E-01   -.292E-04 -.402E-04 -.140E-04
   0.226E+01 -.846E+01 -.658E+00   -.222E+01 0.800E+01 0.676E+00   -.447E-01 0.461E+00 -.115E-01   -.293E-04 -.402E-04 -.140E-04
   0.226E+01 -.846E+01 -.658E+00   -.222E+01 0.800E+01 0.676E+00   -.447E-01 0.461E+00 -.115E-01   -.292E-04 -.403E-04 -.140E-04
   0.226E+01 -.846E+01 -.658E+00   -.222E+01 0.800E+01 0.676E+00   -.447E-01 0.461E+00 -.115E-01   -.293E-04 -.403E-04 -.140E-04
 -----------------------------------------------------------------------------------------------
   -.385E-06 -.148E+02 0.332E-03   0.156E-12 -.458E-12 0.125E-11   0.659E-15 0.148E+02 0.278E-16   -.122E-10 -.318E-02 -.118E-10
 
 
 POSITION                                       TOTAL-FORCE (eV/Angst)
 -----------------------------------------------------------------------------------
      1.34385      1.29720      1.32105         0.000165     -0.001818      0.000398
      6.60032      1.29720      1.38985         0.000165     -0.001818      0.000398
      1.34385      6.55616      1.32105         0.000165     -0.001818      0.000398
      6.60032      6.55616      1.38985         0.000165     -0.001818      0.000398
      3.94668      3.92668      1.34973        -0.000165     -0.001818     -0.000398
      9.20314      3.92668      1.41853        -0.000165     -0.001818     -0.000398
      3.94668      9.18564      1.34973        -0.000165     -0.001818     -0.000398
      9.20314      9.18564      1.41853        -0.000165     -0.001818     -0.000398
      1.43332      3.92117      9.12410        -0.000000     -0.002276      0.000000
      6.68979      3.92117      9.19290        -0.000000     -0.002276      0.000000
      1.43332      9.18013      9.12410        -0.000000     -0.002276      0.000000
      6.68979      9.18013      9.19290        -0.000000     -0.002276      0.000000
      4.06156      1.31457      9.15850        -0.000000      0.000283      0.000000
      9.31802      1.31457      9.22730        -0.000000      0.000283      0.000000
      4.06156      6.57353      9.15850        -0.000000      0.000283      0.000000
      9.31802      6.57353      9.22730        -0.000000      0.000283      0.000000
      1.38656      1.29720      6.51927        -0.000165     -0.001818     -0.000398
      6.64303      1.29720      6.58807        -0.000165     -0.001818     -0.000398
      1.38656      6.55616      6.51927        -0.000165     -0.001818     -0.000398
      6.64303      6.55616      6.58807        -0.000165     -0.001818     -0.000398
      4.04020      3.92668      6.55939         0.000165     -0.001818      0.000398
      9.29667      3.92668      6.62820         0.000165     -0.001818      0.000398
      4.04020      9.18564      6.55939         0.000165     -0.001818      0.000398
      9.29667      9.18564      6.62820         0.000165     -0.001818      0.000398
      3.99344      1.29169      3.95456        -0.000000     -0.002276      0.000000
      9.24990      1.29169      4.02336        -0.000000     -0.002276      0.000000
      3.99344      6.55065      3.95456        -0.000000     -0.002276      0.000000
      9.24990      6.55065      4.02336        -0.000000     -0.002276      0.000000
      1.36520      3.94405      3.92016        -0.000000      0.000283      0.000000
      6.62167      3.94405      3.98896        -0.000000      0.000283      0.000000
      1.36520      9.20302      3.92016        -0.000000      0.000283      0.000000
      6.62167      9.20302      3.98896        -0.000000      0.000283      0.000000
     10.57513      0.01485      5.34151         0.001616      0.000690     -0.003288
      5.31867      0.01485      5.27271         0.001616      0.000690     -0.003288
     10.57513      5.27381      5.34151         0.001616      0.000690     -0.003288
      5.31867      5.27381      5.27271         0.001616      0.000690     -0.003288
      2.66821      0.01485      2.63641        -0.001616      0.000690      0.003288
      7.92468      0.01485      2.70521        -0.001616      0.000690      0.003288
      2.66821      5.27381      2.63641        -0.001616      0.000690      0.003288
      7.92468      5.27381      2.70521        -0.001616      0.000690      0.003288
      2.62231      2.64433      0.03437         0.001616      0.000690     -0.003288
      7.87878      2.64433      0.10317         0.001616      0.000690     -0.003288
      2.62231      7.90330      0.03437         0.001616      0.000690     -0.003288
      7.87878      7.90330      0.10317         0.001616      0.000690     -0.003288
      0.10809      2.64433      7.80595        -0.001616      0.000690      0.003288
      5.36456      2.64433      7.87475        -0.001616      0.000690      0.003288
      0.10809      7.90330      7.80595        -0.001616      0.000690      0.003288
      5.36456      7.90330      7.87475        -0.001616      0.000690      0.003288
     10.50972      0.01430      0.13894         0.001529      0.002124     -0.006226
      5.25326      0.01430      0.07014         0.001529      0.002124     -0.006226
     10.50972      5.27327      0.13894         0.001529      0.002124     -0.006226
      5.25326      5.27327      0.07014         0.001529      0.002124     -0.006226
      2.73362      0.01430      7.83898        -0.001529      0.002124      0.006226
      7.99008      0.01430      7.90779        -0.001529      0.002124      0.006226
      2.73362      5.27327      7.83898        -0.001529      0.002124      0.006226
      7.99008      5.27327      7.90779        -0.001529      0.002124      0.006226
      2.69314      2.64379      5.23967         0.001529      0.002124     -0.006226
      7.94961      2.64379      5.30848         0.001529      0.002124     -0.006226
      2.69314      7.90275      5.23967         0.001529      0.002124     -0.006226
      7.94961      7.90275      5.30848         0.001529      0.002124     -0.006226
      0.03727      2.64379      2.60064        -0.001529      0.002124      0.006226
      5.29373      2.64379      2.66944        -0.001529      0.002124      0.006226
      0.03727      7.90275      2.60064        -0.001529      0.002124      0.006226
      5.29373      7.90275      2.66944        -0.001529      0.002124      0.006226
 -----------------------------------------------------------------------------------
    total drift:                               -0.000000     -0.027416      0.000332


--------------------------------------------------------------------------------------------------------



  FREE ENERGIE OF THE ION-ELECTRON SYSTEM (eV)
  ---------------------------------------------------
  free  energy   TOTEN  =      -328.05092498 eV

  energy  without entropy=     -328.05092498  energy(sigma->0) =     -328.05092498
 


--------------------------------------------------------------------------------------------------------


    POTLOK:  cpu time    0.1611: real time    0.1619


--------------------------------------------------------------------------------------------------------


 writing wavefunctions
     LOOP+:  cpu time 3525.6430: real time 3550.8652
    4ORBIT:  cpu time    0.0000: real time    0.0000
 


 total charge     
 
# of ion       s       p       d       tot
------------------------------------------
    1        1.313   2.410   0.000   3.724
    2        1.313   2.410   0.000   3.724
    3        1.313   2.410   0.000   3.724
    4        1.313   2.410   0.000   3.724
    5        1.313   2.410   0.000   3.724
    6        1.313   2.410   0.000   3.724
    7        1.313   2.410   0.000   3.724
    8        1.313   2.410   0.000   3.724
    9        1.314   2.409   0.000   3.723
   10        1.314   2.409   0.000   3.723
   11        1.314   2.409   0.000   3.723
   12        1.314   2.409   0.000   3.723
   13        1.313   2.411   0.000   3.724
   14        1.313   2.411   0.000   3.724
   15        1.313   2.411   0.000   3.724
   16        1.313   2.411   0.000   3.724
   17        1.313   2.410   0.000   3.724
   18        1.313   2.410   0.000   3.724
   19        1.313   2.410   0.000   3.724
   20        1.313   2.410   0.000   3.724
   21        1.313   2.410   0.000   3.724
   22        1.313   2.410   0.000   3.724
   23        1.313   2.410   0.000   3.724
   24        1.313   2.410   0.000   3.724
   25        1.314   2.409   0.000   3.723
   26        1.314   2.409   0.000   3.723
   27        1.314   2.409   0.000   3.723
   28        1.314   2.409   0.000   3.723
   29        1.313   2.411   0.000   3.724
   30        1.313   2.411   0.000   3.724
   31        1.313   2.411   0.000   3.724
   32        1.313   2.411   0.000   3.724
   33        0.260   6.202   8.917  15.378
   34        0.260   6.202   8.917  15.378
   35        0.260   6.202   8.917  15.378
   36        0.260   6.202   8.917  15.378
   37        0.260   6.202   8.917  15.378
   38        0.260   6.202   8.917  15.378
   39        0.260   6.202   8.917  15.378
   40        0.260   6.202   8.917  15.378
   41        0.260   6.202   8.917  15.378
   42        0.260   6.202   8.917  15.378
   43        0.260   6.202   8.917  15.378
   44        0.260   6.202   8.917  15.378
   45        0.260   6.202   8.917  15.378
   46        0.260   6.202   8.917  15.378
   47        0.260   6.202   8.917  15.378
   48        0.260   6.202   8.917  15.378
   49        0.350   6.351   5.820  12.521
   50        0.350   6.351   5.820  12.521
   51        0.350   6.351   5.820  12.521
   52        0.350   6.351   5.820  12.521
   53        0.350   6.351   5.820  12.521
   54        0.350   6.351   5.820  12.521
   55        0.350   6.351   5.820  12.521
   56        0.350   6.351   5.820  12.521
   57        0.350   6.351   5.820  12.521
   58        0.350   6.351   5.820  12.521
   59        0.350   6.351   5.820  12.521
   60        0.350   6.351   5.820  12.521
   61        0.350   6.351   5.820  12.521
   62        0.350   6.351   5.820  12.521
   63        0.350   6.351   5.820  12.521
   64        0.350   6.351   5.820  12.521
--------------------------------------------------
tot         51.789 277.971 235.786 565.545
 


 magnetization (x)
 
# of ion       s       p       d       tot
------------------------------------------
    1       -0.000  -0.006   0.000  -0.006
    2       -0.000  -0.006   0.000  -0.006
    3       -0.000  -0.006   0.000  -0.006
    4       -0.000  -0.006   0.000  -0.006
    5        0.000   0.006   0.000   0.006
    6        0.000   0.006   0.000   0.006
    7        0.000   0.006   0.000   0.006
    8        0.000   0.006   0.000   0.006
    9       -0.000  -0.000   0.000  -0.000
   10        0.000  -0.000   0.000  -0.000
   11       -0.000  -0.000   0.000  -0.000
   12        0.000  -0.000   0.000  -0.000
   13       -0.000  -0.000   0.000  -0.000
   14       -0.000  -0.000   0.000  -0.000
   15       -0.000  -0.000   0.000  -0.000
   16       -0.000  -0.000   0.000  -0.000
   17        0.000   0.006   0.000   0.006
   18        0.000   0.006   0.000   0.006
   19        0.000   0.006   0.000   0.006
   20        0.000   0.006   0.000   0.006
   21       -0.000  -0.006   0.000  -0.006
   22       -0.000  -0.006   0.000  -0.006
   23       -0.000  -0.006   0.000  -0.006
   24       -0.000  -0.006   0.000  -0.006
   25       -0.000  -0.000   0.000  -0.000
   26       -0.000  -0.000   0.000  -0.000
   27       -0.000  -0.000   0.000  -0.000
   28        0.000  -0.000   0.000  -0.000
   29       -0.000  -0.000   0.000  -0.000
   30       -0.000  -0.000   0.000  -0.000
   31       -0.000  -0.000   0.000  -0.000
   32       -0.000  -0.000   0.000  -0.000
   33        0.000   0.001  -0.001  -0.000
   34        0.000   0.001  -0.001  -0.000
   35        0.000   0.001  -0.001  -0.000
   36        0.000   0.001  -0.001  -0.000
   37       -0.000  -0.001   0.001   0.000
   38       -0.000  -0.001   0.001   0.000
   39       -0.000  -0.001   0.001   0.000
   40       -0.000  -0.001   0.001   0.000
   41        0.000   0.001  -0.001  -0.000
   42        0.000   0.001  -0.001  -0.000
   43        0.000   0.001  -0.001  -0.000
   44        0.000   0.001  -0.001  -0.000
   45       -0.000  -0.001   0.001   0.000
   46       -0.000  -0.001   0.001   0.000
   47       -0.000  -0.001   0.001   0.000
   48       -0.000  -0.001   0.001   0.000
   49        0.020   0.054   3.670   3.744
   50        0.020   0.054   3.670   3.744
   51        0.020   0.054   3.670   3.744
   52        0.020   0.054   3.670   3.744
   53       -0.020  -0.054  -3.670  -3.744
   54       -0.020  -0.054  -3.670  -3.744
   55       -0.020  -0.054  -3.670  -3.744
   56       -0.020  -0.054  -3.670  -3.744
   57        0.020   0.054   3.670   3.744
   58        0.020   0.054   3.670   3.744
   59        0.020   0.054   3.670   3.744
   60        0.020   0.054   3.670   3.744
   61       -0.020  -0.054  -3.670  -3.744
   62       -0.020  -0.054  -3.670  -3.744
   63       -0.020  -0.054  -3.670  -3.744
   64       -0.020  -0.054  -3.670  -3.744
--------------------------------------------------
tot          0.000  -0.000   0.000   0.000
 
 BZINTS: Fermi energy:  4.980888;688.000000 electrons
         Band energy:***********;  BLOECHL correction:  0.000000

 total amount of memory used by VASP MPI-rank0   349631. kBytes
=======================================================================

   base      :      30000. kBytes
   nonl-proj :     217907. kBytes
   fftplans  :       4588. kBytes
   grid      :      69719. kBytes
   one-center:       1990. kBytes
   wavefun   :      25427. kBytes
 
  
  
 General timing and accounting informations for this job:
 ========================================================
  
                  Total CPU time used (sec):     3584.812
                            User time (sec):     3573.551
                          System time (sec):       11.261
                         Elapsed time (sec):     3611.334
  
                   Maximum memory used (kb):      708024.
                   Average memory used (kb):           0.
  
                          Minor page faults:       642143
                          Major page faults:         5756
                 Voluntary context switches:         7183
