 vasp.5.4.4.18Apr17-6-g9f103f2a35 (build Oct 30 2023 17:49:44) complex          
  
 executed on             LinuxIFC date 2024.12.05  20:48:09
 running on  256 total cores
 distrk:  each k-point on  256 cores,    1 groups
 distr:  one band on NCORES_PER_BAND=   1 cores,  256 groups


--------------------------------------------------------------------------------------------------------


 INCAR:
 POTCAR:    PAW_PBE S 06Sep2000                   
 POTCAR:     PAW_PBE Cu_pv 06Sep2000              
 POTCAR:     PAW_PBE Fe_pv 02Aug2007              

 ----------------------------------------------------------------------------- 
|                                                                             |
|           W    W    AA    RRRRR   N    N  II  N    N   GGGG   !!!           |
|           W    W   A  A   R    R  NN   N  II  NN   N  G    G  !!!           |
|           W    W  A    A  R    R  N N  N  II  N N  N  G       !!!           |
|           W WW W  AAAAAA  RRRRR   N  N N  II  N  N N  G  GGG   !            |
|           WW  WW  A    A  R   R   N   NN  II  N   NN  G    G                |
|           W    W  A    A  R    R  N    N  II  N    N   GGGG   !!!           |
|                                                                             |
|      For optimal performance we recommend to set                            |
|        NCORE= 4 - approx SQRT( number of cores)                             |
|      NCORE specifies how many cores store one orbital (NPAR=cpu/NCORE).     |
|      This setting can  greatly improve the performance of VASP for DFT.     |
|      The default,   NCORE=1            might be grossly inefficient         |
|      on modern multi-core architectures or massively parallel machines.     |
|      Do your own testing !!!!                                               |
|      Unfortunately you need to use the default for GW and RPA calculations. |
|      (for HF NCORE is supported but not extensively tested yet)             |
|                                                                             |
 ----------------------------------------------------------------------------- 

 POTCAR:    PAW_PBE S 06Sep2000                   
   SHA256 =  0fc7481fb0695f01bdc6462160264c5c84044ae9ec85a907d398b887a2bc3132 S/
   COPYR  = (c) Copyright 06Sep2000 Georg Kresse                                
   COPYR  = This file is part of the software VASP. Any use, copying, and all ot
   COPYR  = If you do not have a valid VASP license, you may not use, copy or di
   VRHFIN =S : s2p4                                                             
   LEXCH  = PE                                                                  
   EATOM  =   276.8230 eV,   20.3459 Ry                                         
                                                                                
   TITEL  = PAW_PBE S 06Sep2000                                                 
   LULTRA =        F    use ultrasoft PP ?                                      
   IUNSCR =        1    unscreen: 0-lin 1-nonlin 2-no                           
   RPACOR =    1.500    partial core radius                                     
   POMASS =   32.066; ZVAL   =    6.000    mass and valenz                      
   RCORE  =    1.900    outmost cutoff radius                                   
   RWIGS  =    2.200; RWIGS  =    1.164    wigner-seitz radius (au A)           
   ENMAX  =  258.689; ENMIN  =  194.016 eV                                      
   ICORE  =        2    local potential                                         
   LCOR   =        T    correct aug charges                                     
   LPAW   =        T    paw PP                                                  
   EAUG   =  335.092                                                            
   DEXC   =    0.000                                                            
   RMAX   =    1.942    core radius for proj-oper                               
   RAUG   =    1.300    factor for augmentation sphere                          
   RDEP   =    1.954    radius for radial grids                                 
   RDEPT  =    1.744    core radius for aug-charge                              
                                                                                
   Atomic configuration                                                         
    6 entries                                                                   
     n  l   j            E        occ.                                          
     1  0  0.50     -2405.8406   2.0000                                         
     2  0  0.50      -211.7007   2.0000                                         
     2  1  1.50      -156.4958   6.0000                                         
     3  0  0.50       -17.2562   2.0000                                         
     3  1  0.50        -7.0085   4.0000                                         
     3  2  1.50        -6.8029   0.0000                                         
   Description                                                                  
     l       E           TYP  RCUT    TYP  RCUT                                 
     0    -17.2561641     23  1.900                                             
     0    -15.8743224     23  1.900                                             
     1     -7.0085400     23  1.900                                             
     1     -2.7779785     23  1.900                                             
     2     -6.8029130     23  1.900                                             
  local pseudopotential read in
  partial core-charges read in
  partial kinetic energy density read in
  atomic valenz-charges read in
  non local Contribution for L=           0  read in
    real space projection operators read in
  non local Contribution for L=           0  read in
    real space projection operators read in
  non local Contribution for L=           1  read in
    real space projection operators read in
  non local Contribution for L=           1  read in
    real space projection operators read in
    PAW grid and wavefunctions read in
 
   number of l-projection  operators is LMAX  =           4
   number of lm-projection operators is LMMAX =           8
 
 POTCAR:     PAW_PBE Cu_pv 06Sep2000              
   SHA256 =  cb7b504e2ea725fe1f25c85a9ac77d4012ce94cd394135b722c4e25ec297f1cb Cu
   COPYR  = (c) Copyright 06Sep2000 Georg Kresse                                
   COPYR  = This file is part of the software VASP. Any use, copying, and all ot
   COPYR  = If you do not have a valid VASP license, you may not use, copy or di
   VRHFIN =Cu: d10 p1                                                           
   LEXCH  = PE                                                                  
   EATOM  =  4120.1201 eV,  302.8203 Ry                                         
                                                                                
   TITEL  = PAW_PBE Cu_pv 06Sep2000                                             
   LULTRA =        F    use ultrasoft PP ?                                      
   IUNSCR =        1    unscreen: 0-lin 1-nonlin 2-no                           
   RPACOR =    1.500    partial core radius                                     
   POMASS =   63.546; ZVAL   =   17.000    mass and valenz                      
   RCORE  =    2.000    outmost cutoff radius                                   
   RWIGS  =    2.000; RWIGS  =    1.058    wigner-seitz radius (au A)           
   ENMAX  =  368.648; ENMIN  =  276.486 eV                                      
   RCLOC  =    1.304    cutoff for local pot                                    
   LCOR   =        T    correct aug charges                                     
   LPAW   =        T    paw PP                                                  
   EAUG   =  758.233                                                            
   DEXC   =    0.000                                                            
   RMAX   =    2.046    core radius for proj-oper                               
   RAUG   =    1.300    factor for augmentation sphere                          
   RDEP   =    2.025    radius for radial grids                                 
   RDEPT  =    1.558    core radius for aug-charge                              
                                                                                
   Atomic configuration                                                         
    8 entries                                                                   
     n  l   j            E        occ.                                          
     1  0  0.50     -8850.2467   2.0000                                         
     2  0  0.50     -1062.3498   2.0000                                         
     2  1  1.50      -916.8226   6.0000                                         
     3  0  0.50      -114.6929   2.0000                                         
     3  1  1.50       -72.1325   6.0000                                         
     3  2  2.50        -5.0394  10.0000                                         
     4  0  0.50        -4.6097   1.0000                                         
     4  3  2.50        -1.3606   0.0000                                         
   Description                                                                  
     l       E           TYP  RCUT    TYP  RCUT                                 
     1    -72.1324777     23  1.700                                             
     1     -1.3605826     23  1.700                                             
     2     -5.0393776     23  2.000                                             
     2     -6.3999602     23  2.000                                             
     0     -4.6097062     23  1.800                                             
     0     14.1620818     23  1.800                                             
  local pseudopotential read in
  partial core-charges read in
  partial kinetic energy density read in
  atomic valenz-charges read in
  non local Contribution for L=           1  read in
    real space projection operators read in
  non local Contribution for L=           1  read in
    real space projection operators read in
  non local Contribution for L=           2  read in
    real space projection operators read in
  non local Contribution for L=           2  read in
    real space projection operators read in
  non local Contribution for L=           0  read in
    real space projection operators read in
  non local Contribution for L=           0  read in
    real space projection operators read in
    PAW grid and wavefunctions read in
 
   number of l-projection  operators is LMAX  =           6
   number of lm-projection operators is LMMAX =          18
 
 POTCAR:     PAW_PBE Fe_pv 02Aug2007              
   SHA256 =  5d22e414b1f82158bf2c7ecb8b97b28fd0923e48cadc1c3bf74d524558f5dd32 Fe
   COPYR  = (c) Copyright 02Aug2007 Georg Kresse                                
   COPYR  = This file is part of the software VASP. Any use, copying, and all ot
   COPYR  = If you do not have a valid VASP license, you may not use, copy or di
   VRHFIN =Fe:  3pd7s1                                                          
   LEXCH  = PE                                                                  
   EATOM  =  2457.4239 eV,  180.6156 Ry                                         
                                                                                
   TITEL  = PAW_PBE Fe_pv 02Aug2007                                             
   LULTRA =        F    use ultrasoft PP ?                                      
   IUNSCR =        1    unscreen: 0-lin 1-nonlin 2-no                           
   RPACOR =    1.750    partial core radius                                     
   POMASS =   55.847; ZVAL   =   14.000    mass and valenz                      
   RCORE  =    2.200    outmost cutoff radius                                   
   RWIGS  =    2.200; RWIGS  =    1.164    wigner-seitz radius (au A)           
   ENMAX  =  293.238; ENMIN  =  219.928 eV                                      
   ICORE  =        3    local potential                                         
   LCOR   =        T    correct aug charges                                     
   LPAW   =        T    paw PP                                                  
   EAUG   =  578.342                                                            
   DEXC   =    0.000                                                            
   RMAX   =    2.249    core radius for proj-oper                               
   RAUG   =    1.300    factor for augmentation sphere                          
   RDEP   =    2.296    radius for radial grids                                 
   RDEPT  =    1.766    core radius for aug-charge                              
                                                                                
   Atomic configuration                                                         
    8 entries                                                                   
     n  l   j            E        occ.                                          
     1  0  0.50     -6993.8440   2.0000                                         
     2  0  0.50      -814.6047   2.0000                                         
     2  1  1.50      -693.3689   6.0000                                         
     3  0  0.50       -89.4732   2.0000                                         
     3  1  1.50       -55.6373   6.0000                                         
     3  2  2.50        -3.8151   7.0000                                         
     4  0  0.50        -4.2551   1.0000                                         
     4  3  2.50        -1.3606   0.0000                                         
   Description                                                                  
     l       E           TYP  RCUT    TYP  RCUT                                 
     1    -55.6372668     23  2.000                                             
     1     -5.4423304     23  2.000                                             
     2     -3.8151096     23  2.200                                             
     2     -5.1756922     23  2.200                                             
     0     -4.2550951     23  2.200                                             
     0     27.2116520     23  2.200                                             
     3     -1.3605826     23  2.200                                             
  local pseudopotential read in
  partial core-charges read in
  partial kinetic energy density read in
  atomic valenz-charges read in
  non local Contribution for L=           1  read in
    real space projection operators read in
  non local Contribution for L=           1  read in
    real space projection operators read in
  non local Contribution for L=           2  read in
    real space projection operators read in
  non local Contribution for L=           2  read in
    real space projection operators read in
  non local Contribution for L=           0  read in
    real space projection operators read in
  non local Contribution for L=           0  read in
    real space projection operators read in
    PAW grid and wavefunctions read in
 
   number of l-projection  operators is LMAX  =           6
   number of lm-projection operators is LMMAX =          18
 

 ----------------------------------------------------------------------------- 
|                                                                             |
|  ADVICE TO THIS USER RUNNING 'VASP/VAMP'   (HEAR YOUR MASTER'S VOICE ...):  |
|                                                                             |
|      You enforced a specific xc-type in the INCAR file,                     |
|      a different type was found on the POTCAR file                          |
|          I HOPE YOU KNOW, WHAT YOU ARE  DOING                               |
|                                                                             |
 ----------------------------------------------------------------------------- 

  PAW_PBE S 06Sep2000                   :
 energy of atom  1       EATOM= -276.8230
 kinetic energy error for atom=    0.0007 (will be added to EATOM!!)
   PAW_PBE Cu_pv 06Sep2000              :
 energy of atom  2       EATOM=-4120.1201
 kinetic energy error for atom=    0.0094 (will be added to EATOM!!)
   PAW_PBE Fe_pv 02Aug2007              :
 energy of atom  3       EATOM=-2457.4239
 kinetic energy error for atom=    0.0025 (will be added to EATOM!!)
 
 
 POSCAR: Fe4 Cu4 S8                              
  positions in direct lattice
  velocities in cartesian coordinates
 exchange correlation table for  LEXCH =       14
   RHO(1)=    0.500       N(1)  =     2000
   RHO(2)=  100.500       N(2)  =     4000
 


--------------------------------------------------------------------------------------------------------


 ion  position               nearest neighbor table
   1  0.253  0.234  0.126-  11 2.25  16 2.26  10 2.28  13 2.30
   2  0.747  0.734  0.124-  10 2.25  13 2.26  11 2.28  16 2.30
   3  0.250  0.739  0.875-  13 2.27  14 2.27  11 2.27  12 2.27
   4  0.750  0.242  0.875-  11 2.26  12 2.26  13 2.30  14 2.30
   5  0.247  0.234  0.624-  12 2.25  15 2.26   9 2.28  14 2.30
   6  0.753  0.734  0.626-   9 2.25  14 2.26  12 2.28  15 2.30
   7  0.750  0.239  0.375-  15 2.27  16 2.27  10 2.27   9 2.27
   8  0.250  0.742  0.375-  10 2.26   9 2.26  15 2.30  16 2.30
   9  0.994  0.013  0.500-   6 2.25   8 2.26   7 2.27   5 2.28
  10  0.506  0.013  0.250-   2 2.25   8 2.26   7 2.27   1 2.28
  11  0.494  0.513  0.000-   1 2.25   4 2.26   3 2.27   2 2.28
  12  0.006  0.513  0.750-   5 2.25   4 2.26   3 2.27   6 2.28
  13  0.997  0.013  0.001-   2 2.26   3 2.27   4 2.30   1 2.30
  14  0.503  0.013  0.749-   6 2.26   3 2.27   4 2.30   5 2.30
  15  0.497  0.513  0.501-   5 2.26   7 2.27   8 2.30   6 2.30
  16  0.003  0.513  0.249-   1 2.26   7 2.27   8 2.30   2 2.30
 
  LATTYP: Found a simple monoclinic cell.
 ALAT       =    12.2103519659
 B/A-ratio  =     0.4318577252
 C/A-ratio  =     1.8071309655
 COS(beta)  =    -0.9795265852
  
  Lattice vectors:
  
 A1 = (  -5.8797800000,   0.0000000000, -10.7014430000)
 A2 = (   0.0000000000,  -5.2731348243,   0.0000000000)
 A3 = (   6.5147820000,   0.0000000000,  21.0820530000)


Analysis of symmetry for initial positions (statically):
=====================================================================
 Subroutine PRICEL returns following result:
 
  LATTYP: Found a base centered monoclinic cell.
 ALAT       =    11.0656743156
 B/A-ratio  =     0.4765308172
 C/A-ratio  =     0.9398445787
 COS(beta)  =    -0.7961867784
  
  Lattice vectors:
  
 A1 = (  -2.3048880000,  -2.6365674122,   5.0298885000)
 A2 = (  -2.3048880000,   2.6365674122,   5.0298885000)
 A3 = (  -0.6350020000,   0.0000000000, -10.3806100000)
 
   2 primitive cells build up your supercell.
 

 Routine SETGRP: Setting up the symmetry group for a 
 simple monoclinic supercell.


 Subroutine GETGRP returns: Found  2 space group operations
 (whereof  1 operations were pure point group operations)
 out of a pool of  4 trial point group operations.


The static configuration has the point symmetry C_1 .
 The point group associated with its full space group is C_2 .


Analysis of symmetry for dynamics (positions and initial velocities):
=====================================================================
 Subroutine PRICEL returns following result:
 
  LATTYP: Found a base centered monoclinic cell.
 ALAT       =    11.0656743156
 B/A-ratio  =     0.4765308172
 C/A-ratio  =     0.9398445787
 COS(beta)  =    -0.7961867784
  
  Lattice vectors:
  
 A1 = (  -2.3048880000,  -2.6365674122,   5.0298885000)
 A2 = (  -2.3048880000,   2.6365674122,   5.0298885000)
 A3 = (  -0.6350020000,   0.0000000000, -10.3806100000)
 
   2 primitive cells build up your supercell.
 

 Routine SETGRP: Setting up the symmetry group for a 
 simple monoclinic supercell.


 Subroutine GETGRP returns: Found  2 space group operations
 (whereof  1 operations were pure point group operations)
 out of a pool of  4 trial point group operations.


The dynamic configuration has the point symmetry C_1 .
 The point group associated with its full space group is C_2 .


Analysis of structural, dynamic, and magnetic symmetry:
=====================================================================
 Subroutine PRICEL returns following result:
 
  LATTYP: Found a base centered monoclinic cell.
 ALAT       =    11.0656743156
 B/A-ratio  =     0.4765308172
 C/A-ratio  =     0.9398445787
 COS(beta)  =    -0.7961867784
  
  Lattice vectors:
  
 A1 = (  -2.3048880000,  -2.6365674122,   5.0298885000)
 A2 = (  -2.3048880000,   2.6365674122,   5.0298885000)
 A3 = (  -0.6350020000,   0.0000000000, -10.3806100000)
 
   2 primitive cells build up your supercell.
 

 Routine SETGRP: Setting up the symmetry group for a 
 simple monoclinic supercell.


 Subroutine GETGRP returns: Found  2 space group operations
 (whereof  1 operations were pure point group operations)
 out of a pool of  4 trial point group operations.


The (compounded) configuration has the point symmetry C_1 .
 The point group associated with its full space group is C_2 .


 Subroutine INISYM returns: Found  2 space group operations
 (whereof  1 operations are pure point group operations),
 and found     2 'primitive' translations

 
 
 KPOINTS: Automatic mesh                          

Automatic generation of k-mesh.
Space group operators:
 irot       det(A)        alpha          n_x          n_y          n_z        tau_x        tau_y        tau_z
    1     1.000000     0.000000     1.000000     0.000000     0.000000     0.000000     0.000000     0.000000
    2     1.000000   180.000000     0.000000     1.000000     0.000000    -0.500000    -0.000000    -0.250000
 
 Subroutine IBZKPT returns following result:
 ===========================================
 
 Found     60 irreducible k-points:
 
 Following reciprocal coordinates:
            Coordinates               Weight
  0.000000  0.000000  0.000000      1.000000
  0.166667  0.000000 -0.000000      2.000000
  0.333333  0.000000  0.000000      2.000000
  0.500000  0.000000  0.000000      1.000000
  0.000000  0.166667  0.000000      1.000000
  0.166667  0.166667 -0.000000      2.000000
  0.333333  0.166667  0.000000      2.000000
  0.500000  0.166667  0.000000      1.000000
  0.000000  0.333333  0.000000      1.000000
  0.166667  0.333333 -0.000000      2.000000
  0.333333  0.333333  0.000000      2.000000
  0.500000  0.333333  0.000000      1.000000
  0.000000  0.500000  0.000000      1.000000
  0.166667  0.500000 -0.000000      2.000000
  0.333333  0.500000  0.000000      2.000000
  0.500000  0.500000  0.000000      1.000000
  0.000000 -0.333333  0.000000      1.000000
  0.166667 -0.333333 -0.000000      2.000000
  0.333333 -0.333333  0.000000      2.000000
  0.500000 -0.333333  0.000000      1.000000
  0.000000 -0.166667  0.000000      1.000000
  0.166667 -0.166667 -0.000000      2.000000
  0.333333 -0.166667  0.000000      2.000000
  0.500000 -0.166667  0.000000      1.000000
  0.000000  0.000000  0.333333      2.000000
  0.166667  0.000000  0.333333      2.000000
  0.333333  0.000000  0.333333      2.000000
  0.500000  0.000000  0.333333      2.000000
 -0.333333  0.000000  0.333333      2.000000
 -0.166667  0.000000  0.333333      2.000000
  0.000000  0.166667  0.333333      2.000000
  0.166667  0.166667  0.333333      2.000000
  0.333333  0.166667  0.333333      2.000000
  0.500000  0.166667  0.333333      2.000000
 -0.333333  0.166667  0.333333      2.000000
 -0.166667  0.166667  0.333333      2.000000
  0.000000  0.333333  0.333333      2.000000
  0.166667  0.333333  0.333333      2.000000
  0.333333  0.333333  0.333333      2.000000
  0.500000  0.333333  0.333333      2.000000
 -0.333333  0.333333  0.333333      2.000000
 -0.166667  0.333333  0.333333      2.000000
  0.000000  0.500000  0.333333      2.000000
  0.166667  0.500000  0.333333      2.000000
  0.333333  0.500000  0.333333      2.000000
  0.500000  0.500000  0.333333      2.000000
 -0.333333  0.500000  0.333333      2.000000
 -0.166667  0.500000  0.333333      2.000000
  0.000000 -0.333333  0.333333      2.000000
  0.166667 -0.333333  0.333333      2.000000
  0.333333 -0.333333  0.333333      2.000000
  0.500000 -0.333333  0.333333      2.000000
 -0.333333 -0.333333  0.333333      2.000000
 -0.166667 -0.333333  0.333333      2.000000
  0.000000 -0.166667  0.333333      2.000000
  0.166667 -0.166667  0.333333      2.000000
  0.333333 -0.166667  0.333333      2.000000
  0.500000 -0.166667  0.333333      2.000000
 -0.333333 -0.166667  0.333333      2.000000
 -0.166667 -0.166667  0.333333      2.000000
 
 Following cartesian coordinates:
            Coordinates               Weight
  0.000000  0.000000  0.000000      1.000000
  0.031897  0.000000 -0.001951      2.000000
  0.063794  0.000000 -0.003902      2.000000
  0.095691  0.000000 -0.005854      1.000000
  0.000000  0.031607  0.000000      1.000000
  0.031897  0.031607 -0.001951      2.000000
  0.063794  0.031607 -0.003902      2.000000
  0.095691  0.031607 -0.005854      1.000000
  0.000000  0.063214  0.000000      1.000000
  0.031897  0.063214 -0.001951      2.000000
  0.063794  0.063214 -0.003902      2.000000
  0.095691  0.063214 -0.005854      1.000000
  0.000000  0.094820  0.000000      1.000000
  0.031897  0.094820 -0.001951      2.000000
  0.063794  0.094820 -0.003902      2.000000
  0.095691  0.094820 -0.005854      1.000000
  0.000000 -0.063214  0.000000      1.000000
  0.031897 -0.063214 -0.001951      2.000000
  0.063794 -0.063214 -0.003902      2.000000
  0.095691 -0.063214 -0.005854      1.000000
  0.000000 -0.031607  0.000000      1.000000
  0.031897 -0.031607 -0.001951      2.000000
  0.063794 -0.031607 -0.003902      2.000000
  0.095691 -0.031607 -0.005854      1.000000
 -0.001972  0.000000  0.032232      2.000000
  0.029925  0.000000  0.030281      2.000000
  0.061822  0.000000  0.028329      2.000000
  0.093719  0.000000  0.026378      2.000000
 -0.065766  0.000000  0.036134      2.000000
 -0.033869  0.000000  0.034183      2.000000
 -0.001972  0.031607  0.032232      2.000000
  0.029925  0.031607  0.030281      2.000000
  0.061822  0.031607  0.028329      2.000000
  0.093719  0.031607  0.026378      2.000000
 -0.065766  0.031607  0.036134      2.000000
 -0.033869  0.031607  0.034183      2.000000
 -0.001972  0.063214  0.032232      2.000000
  0.029925  0.063214  0.030281      2.000000
  0.061822  0.063214  0.028329      2.000000
  0.093719  0.063214  0.026378      2.000000
 -0.065766  0.063214  0.036134      2.000000
 -0.033869  0.063214  0.034183      2.000000
 -0.001972  0.094820  0.032232      2.000000
  0.029925  0.094820  0.030281      2.000000
  0.061822  0.094820  0.028329      2.000000
  0.093719  0.094820  0.026378      2.000000
 -0.065766  0.094820  0.036134      2.000000
 -0.033869  0.094820  0.034183      2.000000
 -0.001972 -0.063214  0.032232      2.000000
  0.029925 -0.063214  0.030281      2.000000
  0.061822 -0.063214  0.028329      2.000000
  0.093719 -0.063214  0.026378      2.000000
 -0.065766 -0.063214  0.036134      2.000000
 -0.033869 -0.063214  0.034183      2.000000
 -0.001972 -0.031607  0.032232      2.000000
  0.029925 -0.031607  0.030281      2.000000
  0.061822 -0.031607  0.028329      2.000000
  0.093719 -0.031607  0.026378      2.000000
 -0.065766 -0.031607  0.036134      2.000000
 -0.033869 -0.031607  0.034183      2.000000
 
 TETIRR: Found    648 inequivalent tetrahedra from      648
 
 Subroutine IBZKPT_HF returns following result:
 ==============================================
 
 Found    108 k-points in 1st BZ
 the following    108 k-points will be used (e.g. in the exchange kernel)
 Following reciprocal coordinates:   # in IRBZ
  0.000000  0.000000  0.000000    0.00925926   1 t-inv F
  0.166667  0.000000 -0.000000    0.00925926   2 t-inv F
  0.333333  0.000000  0.000000    0.00925926   3 t-inv F
  0.500000  0.000000  0.000000    0.00925926   4 t-inv F
  0.000000  0.166667  0.000000    0.00925926   5 t-inv F
  0.166667  0.166667 -0.000000    0.00925926   6 t-inv F
  0.333333  0.166667  0.000000    0.00925926   7 t-inv F
  0.500000  0.166667  0.000000    0.00925926   8 t-inv F
  0.000000  0.333333  0.000000    0.00925926   9 t-inv F
  0.166667  0.333333 -0.000000    0.00925926  10 t-inv F
  0.333333  0.333333  0.000000    0.00925926  11 t-inv F
  0.500000  0.333333  0.000000    0.00925926  12 t-inv F
  0.000000  0.500000  0.000000    0.00925926  13 t-inv F
  0.166667  0.500000 -0.000000    0.00925926  14 t-inv F
  0.333333  0.500000  0.000000    0.00925926  15 t-inv F
  0.500000  0.500000  0.000000    0.00925926  16 t-inv F
  0.000000 -0.333333  0.000000    0.00925926  17 t-inv F
  0.166667 -0.333333 -0.000000    0.00925926  18 t-inv F
  0.333333 -0.333333  0.000000    0.00925926  19 t-inv F
  0.500000 -0.333333  0.000000    0.00925926  20 t-inv F
  0.000000 -0.166667  0.000000    0.00925926  21 t-inv F
  0.166667 -0.166667 -0.000000    0.00925926  22 t-inv F
  0.333333 -0.166667  0.000000    0.00925926  23 t-inv F
  0.500000 -0.166667  0.000000    0.00925926  24 t-inv F
  0.000000  0.000000  0.333333    0.00925926  25 t-inv F
  0.166667  0.000000  0.333333    0.00925926  26 t-inv F
  0.333333  0.000000  0.333333    0.00925926  27 t-inv F
  0.500000  0.000000  0.333333    0.00925926  28 t-inv F
 -0.333333  0.000000  0.333333    0.00925926  29 t-inv F
 -0.166667  0.000000  0.333333    0.00925926  30 t-inv F
  0.000000  0.166667  0.333333    0.00925926  31 t-inv F
  0.166667  0.166667  0.333333    0.00925926  32 t-inv F
  0.333333  0.166667  0.333333    0.00925926  33 t-inv F
  0.500000  0.166667  0.333333    0.00925926  34 t-inv F
 -0.333333  0.166667  0.333333    0.00925926  35 t-inv F
 -0.166667  0.166667  0.333333    0.00925926  36 t-inv F
  0.000000  0.333333  0.333333    0.00925926  37 t-inv F
  0.166667  0.333333  0.333333    0.00925926  38 t-inv F
  0.333333  0.333333  0.333333    0.00925926  39 t-inv F
  0.500000  0.333333  0.333333    0.00925926  40 t-inv F
 -0.333333  0.333333  0.333333    0.00925926  41 t-inv F
 -0.166667  0.333333  0.333333    0.00925926  42 t-inv F
  0.000000  0.500000  0.333333    0.00925926  43 t-inv F
  0.166667  0.500000  0.333333    0.00925926  44 t-inv F
  0.333333  0.500000  0.333333    0.00925926  45 t-inv F
  0.500000  0.500000  0.333333    0.00925926  46 t-inv F
 -0.333333  0.500000  0.333333    0.00925926  47 t-inv F
 -0.166667  0.500000  0.333333    0.00925926  48 t-inv F
  0.000000 -0.333333  0.333333    0.00925926  49 t-inv F
  0.166667 -0.333333  0.333333    0.00925926  50 t-inv F
  0.333333 -0.333333  0.333333    0.00925926  51 t-inv F
  0.500000 -0.333333  0.333333    0.00925926  52 t-inv F
 -0.333333 -0.333333  0.333333    0.00925926  53 t-inv F
 -0.166667 -0.333333  0.333333    0.00925926  54 t-inv F
  0.000000 -0.166667  0.333333    0.00925926  55 t-inv F
  0.166667 -0.166667  0.333333    0.00925926  56 t-inv F
  0.333333 -0.166667  0.333333    0.00925926  57 t-inv F
  0.500000 -0.166667  0.333333    0.00925926  58 t-inv F
 -0.333333 -0.166667  0.333333    0.00925926  59 t-inv F
 -0.166667 -0.166667  0.333333    0.00925926  60 t-inv F
 -0.166667  0.000000  0.000000    0.00925926   2 t-inv F
 -0.333333  0.000000  0.000000    0.00925926   3 t-inv F
 -0.166667  0.166667  0.000000    0.00925926   6 t-inv F
 -0.333333  0.166667  0.000000    0.00925926   7 t-inv F
 -0.166667  0.333333  0.000000    0.00925926  10 t-inv F
 -0.333333  0.333333  0.000000    0.00925926  11 t-inv F
 -0.166667  0.500000  0.000000    0.00925926  14 t-inv F
 -0.333333  0.500000  0.000000    0.00925926  15 t-inv F
 -0.166667 -0.333333  0.000000    0.00925926  18 t-inv F
 -0.333333 -0.333333  0.000000    0.00925926  19 t-inv F
 -0.166667 -0.166667  0.000000    0.00925926  22 t-inv F
 -0.333333 -0.166667  0.000000    0.00925926  23 t-inv F
 -0.000000  0.000000 -0.333333    0.00925926  25 t-inv F
 -0.166667  0.000000 -0.333333    0.00925926  26 t-inv F
 -0.333333  0.000000 -0.333333    0.00925926  27 t-inv F
 -0.500000  0.000000 -0.333333    0.00925926  28 t-inv F
  0.333333  0.000000 -0.333333    0.00925926  29 t-inv F
  0.166667  0.000000 -0.333333    0.00925926  30 t-inv F
 -0.000000  0.166667 -0.333333    0.00925926  31 t-inv F
 -0.166667  0.166667 -0.333333    0.00925926  32 t-inv F
 -0.333333  0.166667 -0.333333    0.00925926  33 t-inv F
 -0.500000  0.166667 -0.333333    0.00925926  34 t-inv F
  0.333333  0.166667 -0.333333    0.00925926  35 t-inv F
  0.166667  0.166667 -0.333333    0.00925926  36 t-inv F
 -0.000000  0.333333 -0.333333    0.00925926  37 t-inv F
 -0.166667  0.333333 -0.333333    0.00925926  38 t-inv F
 -0.333333  0.333333 -0.333333    0.00925926  39 t-inv F
 -0.500000  0.333333 -0.333333    0.00925926  40 t-inv F
  0.333333  0.333333 -0.333333    0.00925926  41 t-inv F
  0.166667  0.333333 -0.333333    0.00925926  42 t-inv F
 -0.000000  0.500000 -0.333333    0.00925926  43 t-inv F
 -0.166667  0.500000 -0.333333    0.00925926  44 t-inv F
 -0.333333  0.500000 -0.333333    0.00925926  45 t-inv F
 -0.500000  0.500000 -0.333333    0.00925926  46 t-inv F
  0.333333  0.500000 -0.333333    0.00925926  47 t-inv F
  0.166667  0.500000 -0.333333    0.00925926  48 t-inv F
 -0.000000 -0.333333 -0.333333    0.00925926  49 t-inv F
 -0.166667 -0.333333 -0.333333    0.00925926  50 t-inv F
 -0.333333 -0.333333 -0.333333    0.00925926  51 t-inv F
 -0.500000 -0.333333 -0.333333    0.00925926  52 t-inv F
  0.333333 -0.333333 -0.333333    0.00925926  53 t-inv F
  0.166667 -0.333333 -0.333333    0.00925926  54 t-inv F
 -0.000000 -0.166667 -0.333333    0.00925926  55 t-inv F
 -0.166667 -0.166667 -0.333333    0.00925926  56 t-inv F
 -0.333333 -0.166667 -0.333333    0.00925926  57 t-inv F
 -0.500000 -0.166667 -0.333333    0.00925926  58 t-inv F
  0.333333 -0.166667 -0.333333    0.00925926  59 t-inv F
  0.166667 -0.166667 -0.333333    0.00925926  60 t-inv F


--------------------------------------------------------------------------------------------------------




 Dimension of arrays:
   k-points           NKPTS =     60   k-points in BZ     NKDIM =     60   number of bands    NBANDS=    256
   number of dos      NEDOS =    301   number of ions     NIONS =     16
   non local maximal  LDIM  =      6   non local SUM 2l+1 LMDIM =     18
   total plane-waves  NPLWV = 207360
   max r-space proj   IRMAX =      1   max aug-charges    IRDMAX=  23038
   dimension x,y,z NGX =    48 NGY =   48 NGZ =   90
   dimension x,y,z NGXF=    96 NGYF=   96 NGZF=  180
   support grid    NGXF=    96 NGYF=   96 NGZF=  180
   ions per type =               8   4   4
   NGX,Y,Z   is equivalent  to a cutoff of  15.19, 15.13, 14.39 a.u.
   NGXF,Y,Z  is equivalent  to a cutoff of  30.37, 30.27, 28.77 a.u.

 SYSTEM =  CuFeS2                                  
 POSCAR =  Fe4 Cu4 S8                              

 Startparameter for this run:
   NWRITE =      2    write-flag & timer
   PREC   = accura    normal or accurate (medium, high low for compatibility)
   ISTART =      1    job   : 0-new  1-cont  2-samecut
   ICHARG =      1    charge: 1-file 2-atom 10-const
   ISPIN  =      1    spin polarized calculation?
   LNONCOLLINEAR =      T non collinear calculations
   LSORBIT =      T    spin-orbit coupling
   INIWAV =      1    electr: 0-lowe 1-rand  2-diag
   LASPH  =      T    aspherical Exc in radial PAW
   METAGGA=      F    non-selfconsistent MetaGGA calc.

 Electronic Relaxation 1
   ENCUT  =  700.0 eV  51.45 Ry    7.17 a.u.  11.34 11.38 22.44*2*pi/ulx,y,z
   ENINI  =  700.0     initial cutoff
   ENAUG  =  758.2 eV  augmentation charge cutoff
   NELM   =    200;   NELMIN=  2; NELMDL=  0     # of ELM steps 
   EDIFF  = 0.1E-07   stopping-criterion for ELM
   LREAL  =      F    real-space projection
   NLSPLINE    = F    spline interpolate recip. space projectors
   LCOMPAT=      F    compatible to vasp.4.4
   GGA_COMPAT  = T    GGA compatible to vasp.4.4-vasp.4.6
   LMAXPAW     = -100 max onsite density
   LMAXMIX     =    4 max onsite mixed and CHGCAR
   VOSKOWN=      0    Vosko Wilk Nusair interpolation
   ROPT   =    0.00000   0.00000   0.00000
 Ionic relaxation
   EDIFFG = -.1E-04   stopping-criterion for IOM
   NSW    =      0    number of steps for IOM
   NBLOCK =      1;   KBLOCK =      1    inner block; outer block 
   IBRION =     -1    ionic relax: 0-MD 1-quasi-New 2-CG
   NFREE  =      0    steps in history (QN), initial steepest desc. (CG)
   ISIF   =      2    stress and relaxation
   IWAVPR =     10    prediction:  0-non 1-charg 2-wave 3-comb
   ISYM   =      2    0-nonsym 1-usesym 2-fastsym
   LCORR  =      T    Harris-Foulkes like correction to forces

   POTIM  = 0.5000    time-step for ionic-motion
   TEIN   =    0.0    initial temperature
   TEBEG  =    0.0;   TEEND  =   0.0 temperature during run
   SMASS  =  -3.00    Nose mass-parameter (am)
   estimated Nose-frequenzy (Omega)   =  0.10E-29 period in steps =****** mass=  -0.631E-27a.u.
   SCALEE = 1.0000    scale energy and forces
   NPACO  =    256;   APACO  = 16.0  distance and # of slots for P.C.
   PSTRESS=    0.0 pullay stress

  Mass of Ions in am
   POMASS =  32.07 63.55 55.85
  Ionic Valenz
   ZVAL   =   6.00 17.00 14.00
  Atomic Wigner-Seitz radii
   RWIGS  =  -1.00 -1.00 -1.00
  virtual crystal weights 
   VCA    =   1.00  1.00  1.00
   NELECT =     172.0000    total number of electrons
   NUPDOWN=      -1.0000    fix difference up-down

 DOS related values:
   EMIN   =  10.00;   EMAX   =-10.00  energy-range for DOS
   EFERMI =   0.00
   ISMEAR =    -5;   SIGMA  =   0.03  broadening in eV -4-tet -1-fermi 0-gaus

 Electronic relaxation 2 (details)
   IALGO  =     38    algorithm
   LDIAG  =      T    sub-space diagonalisation (order eigenvalues)
   LSUBROT=      F    optimize rotation matrix (better conditioning)
   TURBO    =      0    0=normal 1=particle mesh
   IRESTART =      0    0=no restart 2=restart with 2 vectors
   NREBOOT  =      0    no. of reboots
   NMIN     =      0    reboot dimension
   EREF     =   0.00    reference energy to select bands
   IMIX   =      4    mixing-type and parameters
     AMIX     =   0.40;   BMIX     =  1.00
     AMIX_MAG =   1.60;   BMIX_MAG =  1.00
     AMIN     =   0.10
     WC   =   100.;   INIMIX=   1;  MIXPRE=   1;  MAXMIX= -45

 Intra band minimization:
   WEIMIN = 0.0000     energy-eigenvalue tresh-hold
   EBREAK =  0.98E-11  absolut break condition
   DEPER  =   0.30     relativ break condition  

   TIME   =   0.40     timestep for ELM

  volume/ion in A,a.u.               =      17.88       120.63
  Fermi-wavevector in a.u.,A,eV,Ry     =   1.381828  2.611277 25.979637  1.909449
  Thomas-Fermi vector in A             =   2.506576
 
 Write flags
   LWAVE        =      T    write WAVECAR
   LDOWNSAMPLE  =      F    k-point downsampling of WAVECAR
   LCHARG       =      T    write CHGCAR
   LVTOT        =      F    write LOCPOT, total local potential
   LVHAR        =      F    write LOCPOT, Hartree potential only
   LELF         =      F    write electronic localiz. function (ELF)
   LORBIT       =     11    0 simple, 1 ext, 2 COOP (PROOUT), +10 PAW based schemes


 Dipole corrections
   LMONO  =      F    monopole corrections only (constant potential shift)
   LDIPOL =      F    correct potential (dipole corrections)
   IDIPOL =      0    1-x, 2-y, 3-z, 4-all directions 
   EPSILON=  1.0000000 bulk dielectric constant

 LDA+U is selected, type is set to LDAUTYPE =  2
   angular momentum for each species LDAUL =     2    2    2
   U (eV)           for each species LDAUU =   0.0  0.1  4.7
   J (eV)           for each species LDAUJ =   0.0  0.0  0.0
 Exchange correlation treatment:
   GGA     =    PS    GGA type
   LEXCH   =    14    internal setting for exchange type
   VOSKOWN=      0    Vosko Wilk Nusair interpolation
   LHFCALC =     F    Hartree Fock is set to
   LHFONE  =     F    Hartree Fock one center treatment
   AEXX    =    0.0000 exact exchange contribution

 Linear response parameters
   LEPSILON=     F    determine dielectric tensor
   LRPA    =     F    only Hartree local field effects (RPA)
   LNABLA  =     F    use nabla operator in PAW spheres
   LVEL    =     F    velocity operator in full k-point grid
   LINTERFAST=   F  fast interpolation
   KINTER  =     0    interpolate to denser k-point grid
   CSHIFT  =0.1000    complex shift for real part using Kramers Kronig
   OMEGAMAX=  -1.0    maximum frequency
   DEG_THRESHOLD= 0.2000000E-02 threshold for treating states as degnerate
   RTIME   =   -0.100 relaxation time in fs
  (WPLASMAI=    0.000 imaginary part of plasma frequency in eV, 0.658/RTIME)
   DFIELD  = 0.0000000 0.0000000 0.0000000 field for delta impulse in time
 
 Orbital magnetization related:
   ORBITALMAG=     F  switch on orbital magnetization
   LCHIMAG   =     F  perturbation theory with respect to B field
   DQ        =  0.001000  dq finite difference perturbation B field
   LLRAUG    =     F  two centre corrections for induced B field

 PEAD related settings:
   LPEAD      =     T    switch on PEAD
   IPEAD      =     4    finite difference order for dpsi/dk
   LCALCPOL   =     T    calculate macroscopic polarization
   LCALCEPS   =     F    calculate dielectric tensor
   EFIELD_PEAD=    0.0000    0.0000    0.0000
   SKIP_EDOTP =     F
   LRPA       =     F
   SKIP_SCF   =     F


--------------------------------------------------------------------------------------------------------


 Static calculation
 charge density and potential will be updated during run
 non collinear spin polarized calculation
 Variant of blocked Davidson
 Davidson routine will perform the subspace rotation
 perform sub-space diagonalisation
    after iterative eigenvector-optimisation
 modified Broyden-mixing scheme, WC =      100.0
 initial mixing is a Kerker type mixing with AMIX =  0.4000 and BMIX =      1.0000
 Hartree-type preconditioning will be used
 using additional bands          170
 reciprocal scheme for non local part
 use partial core corrections
 calculate Harris-corrections to forces 
   (improved forces if not selfconsistent)
 use gradient corrections 
 use of overlap-Matrix (Vanderbilt PP)
 Fermi weights with tetrahedron method with Bloechl corrections


--------------------------------------------------------------------------------------------------------


  energy-cutoff  :      700.00
  volume of cell :      286.02
      direct lattice vectors                 reciprocal lattice vectors
     5.244778000  0.000000000  0.320833000     0.191381991  0.000000000 -0.011707207
     0.000000000  5.273134824  0.000000000     0.000000000  0.189640514  0.000000000
     0.635002000  0.000000000 10.380610000    -0.005915034  0.000000000  0.096695287

  length of vectors
     5.254581818  5.273134824 10.400014015     0.191739733  0.189640514  0.096876035


 
 old parameters found on file WAVECAR:
  energy-cutoff  :      700.00
  volume of cell :      286.01
      direct lattice vectors                 reciprocal lattice vectors
     5.244778000  0.000000000  0.320833000     0.191381991  0.000000000 -0.011707207
     0.000000000  5.273007086  0.000000000     0.000000000  0.189645108  0.000000000
     0.635002000  0.000000000 10.380610000    -0.005915034  0.000000000  0.096695287

  length of vectors

 
 k-points in units of 2pi/SCALE and weight: Automatic mesh                          
   0.00000000  0.00000000  0.00000000       0.009
   0.03189700  0.00000000 -0.00195120       0.019
   0.06379400  0.00000000 -0.00390240       0.019
   0.09569100  0.00000000 -0.00585360       0.009
   0.00000000  0.03160675  0.00000000       0.009
   0.03189700  0.03160675 -0.00195120       0.019
   0.06379400  0.03160675 -0.00390240       0.019
   0.09569100  0.03160675 -0.00585360       0.009
   0.00000000  0.06321350  0.00000000       0.009
   0.03189700  0.06321350 -0.00195120       0.019
   0.06379400  0.06321350 -0.00390240       0.019
   0.09569100  0.06321350 -0.00585360       0.009
   0.00000000  0.09482026  0.00000000       0.009
   0.03189700  0.09482026 -0.00195120       0.019
   0.06379400  0.09482026 -0.00390240       0.019
   0.09569100  0.09482026 -0.00585360       0.009
   0.00000000 -0.06321350  0.00000000       0.009
   0.03189700 -0.06321350 -0.00195120       0.019
   0.06379400 -0.06321350 -0.00390240       0.019
   0.09569100 -0.06321350 -0.00585360       0.009
   0.00000000 -0.03160675  0.00000000       0.009
   0.03189700 -0.03160675 -0.00195120       0.019
   0.06379400 -0.03160675 -0.00390240       0.019
   0.09569100 -0.03160675 -0.00585360       0.009
  -0.00197168  0.00000000  0.03223176       0.019
   0.02992532  0.00000000  0.03028056       0.019
   0.06182232  0.00000000  0.02832936       0.019
   0.09371932  0.00000000  0.02637816       0.019
  -0.06576568  0.00000000  0.03613416       0.019
  -0.03386868  0.00000000  0.03418296       0.019
  -0.00197168  0.03160675  0.03223176       0.019
   0.02992532  0.03160675  0.03028056       0.019
   0.06182232  0.03160675  0.02832936       0.019
   0.09371932  0.03160675  0.02637816       0.019
  -0.06576568  0.03160675  0.03613416       0.019
  -0.03386868  0.03160675  0.03418296       0.019
  -0.00197168  0.06321350  0.03223176       0.019
   0.02992532  0.06321350  0.03028056       0.019
   0.06182232  0.06321350  0.02832936       0.019
   0.09371932  0.06321350  0.02637816       0.019
  -0.06576568  0.06321350  0.03613416       0.019
  -0.03386868  0.06321350  0.03418296       0.019
  -0.00197168  0.09482026  0.03223176       0.019
   0.02992532  0.09482026  0.03028056       0.019
   0.06182232  0.09482026  0.02832936       0.019
   0.09371932  0.09482026  0.02637816       0.019
  -0.06576568  0.09482026  0.03613416       0.019
  -0.03386868  0.09482026  0.03418296       0.019
  -0.00197168 -0.06321350  0.03223176       0.019
   0.02992532 -0.06321350  0.03028056       0.019
   0.06182232 -0.06321350  0.02832936       0.019
   0.09371932 -0.06321350  0.02637816       0.019
  -0.06576568 -0.06321350  0.03613416       0.019
  -0.03386868 -0.06321350  0.03418296       0.019
  -0.00197168 -0.03160675  0.03223176       0.019
   0.02992532 -0.03160675  0.03028056       0.019
   0.06182232 -0.03160675  0.02832936       0.019
   0.09371932 -0.03160675  0.02637816       0.019
  -0.06576568 -0.03160675  0.03613416       0.019
  -0.03386868 -0.03160675  0.03418296       0.019
 
 k-points in reciprocal lattice and weights: Automatic mesh                          
   0.00000000  0.00000000  0.00000000       0.009
   0.16666667  0.00000000 -0.00000000       0.019
   0.33333333  0.00000000  0.00000000       0.019
   0.50000000  0.00000000  0.00000000       0.009
   0.00000000  0.16666667  0.00000000       0.009
   0.16666667  0.16666667 -0.00000000       0.019
   0.33333333  0.16666667  0.00000000       0.019
   0.50000000  0.16666667  0.00000000       0.009
   0.00000000  0.33333333  0.00000000       0.009
   0.16666667  0.33333333 -0.00000000       0.019
   0.33333333  0.33333333  0.00000000       0.019
   0.50000000  0.33333333  0.00000000       0.009
   0.00000000  0.50000000  0.00000000       0.009
   0.16666667  0.50000000 -0.00000000       0.019
   0.33333333  0.50000000  0.00000000       0.019
   0.50000000  0.50000000  0.00000000       0.009
   0.00000000 -0.33333333  0.00000000       0.009
   0.16666667 -0.33333333 -0.00000000       0.019
   0.33333333 -0.33333333  0.00000000       0.019
   0.50000000 -0.33333333  0.00000000       0.009
   0.00000000 -0.16666667  0.00000000       0.009
   0.16666667 -0.16666667 -0.00000000       0.019
   0.33333333 -0.16666667  0.00000000       0.019
   0.50000000 -0.16666667  0.00000000       0.009
   0.00000000  0.00000000  0.33333333       0.019
   0.16666667  0.00000000  0.33333333       0.019
   0.33333333  0.00000000  0.33333333       0.019
   0.50000000  0.00000000  0.33333333       0.019
  -0.33333333  0.00000000  0.33333333       0.019
  -0.16666667  0.00000000  0.33333333       0.019
   0.00000000  0.16666667  0.33333333       0.019
   0.16666667  0.16666667  0.33333333       0.019
   0.33333333  0.16666667  0.33333333       0.019
   0.50000000  0.16666667  0.33333333       0.019
  -0.33333333  0.16666667  0.33333333       0.019
  -0.16666667  0.16666667  0.33333333       0.019
   0.00000000  0.33333333  0.33333333       0.019
   0.16666667  0.33333333  0.33333333       0.019
   0.33333333  0.33333333  0.33333333       0.019
   0.50000000  0.33333333  0.33333333       0.019
  -0.33333333  0.33333333  0.33333333       0.019
  -0.16666667  0.33333333  0.33333333       0.019
   0.00000000  0.50000000  0.33333333       0.019
   0.16666667  0.50000000  0.33333333       0.019
   0.33333333  0.50000000  0.33333333       0.019
   0.50000000  0.50000000  0.33333333       0.019
  -0.33333333  0.50000000  0.33333333       0.019
  -0.16666667  0.50000000  0.33333333       0.019
   0.00000000 -0.33333333  0.33333333       0.019
   0.16666667 -0.33333333  0.33333333       0.019
   0.33333333 -0.33333333  0.33333333       0.019
   0.50000000 -0.33333333  0.33333333       0.019
  -0.33333333 -0.33333333  0.33333333       0.019
  -0.16666667 -0.33333333  0.33333333       0.019
   0.00000000 -0.16666667  0.33333333       0.019
   0.16666667 -0.16666667  0.33333333       0.019
   0.33333333 -0.16666667  0.33333333       0.019
   0.50000000 -0.16666667  0.33333333       0.019
  -0.33333333 -0.16666667  0.33333333       0.019
  -0.16666667 -0.16666667  0.33333333       0.019
 
 position of ions in fractional coordinates (direct lattice) 
   0.25317718  0.23421514  0.12629247
   0.74682282  0.73421514  0.12370753
   0.25000000  0.73871505  0.87500000
   0.75000000  0.24182277  0.87500000
   0.24682282  0.23421514  0.62370753
   0.75317718  0.73421514  0.62629247
   0.75000000  0.23871505  0.37500000
   0.25000000  0.74182277  0.37500000
   0.99383994  0.01279530  0.50005787
   0.50616006  0.01279530  0.24994213
   0.49383994  0.51279530  0.00005787
   0.00616006  0.51279530  0.74994213
   0.99662406  0.01272066  0.00097418
   0.50337594  0.01272066  0.74902582
   0.49662406  0.51272066  0.50097418
   0.00337594  0.51272066  0.24902582
 
 position of ions in cartesian coordinates  (Angst):
   1.40805406  1.23504800  1.39222047
   3.99547444  3.87161541  1.52376503
   1.86682125  3.89534403  9.16324200
   4.48921025  1.27516407  9.32365850
   1.69058644  1.23504800  6.55365353
   4.34794406  3.87161541  6.74294197
   4.17170925  1.25877662  4.13335350
   1.54932025  3.91173148  3.97293700
   5.53000761  0.06747132  5.50976241
   2.81341089  0.06747132  2.75694459
   2.59011761  2.70403873  0.15904091
   0.50852289  2.70403873  7.78683309
   5.22769054  0.06707775  0.32986249
   3.11572796  0.06707775  7.93684451
   2.92280254  2.70364516  5.35975099
   0.17583796  2.70364516  2.58612301
 
 Euler angles ALPHA=     0.0000000  BETA=     0.0000000

 transformation matrix from SAXIS to cartesian coordinates
 ---------------------------------------------------------
     1.0000000 m_x     0.0000000 m_y     0.0000000 m_z
     0.0000000 m_x     1.0000000 m_y     0.0000000 m_z
     0.0000000 m_x     0.0000000 m_y     1.0000000 m_z

 transformation matrix from cartesian coordinates to SAXIS
 ---------------------------------------------------------
     1.0000000 m_x     0.0000000 m_y     0.0000000 m_z
     0.0000000 m_x     1.0000000 m_y     0.0000000 m_z
     0.0000000 m_x     0.0000000 m_y     1.0000000 m_z




--------------------------------------------------------------------------------------------------------


 k-point  1 :   0.0000 0.0000 0.0000  plane waves:   24074
 k-point  2 :   0.1667 0.0000-0.0000  plane waves:   24038
 k-point  3 :   0.3333 0.0000 0.0000  plane waves:   24054
 k-point  4 :   0.5000 0.0000 0.0000  plane waves:   24024
 k-point  5 :   0.0000 0.1667 0.0000  plane waves:   24122
 k-point  6 :   0.1667 0.1667-0.0000  plane waves:   24068
 k-point  7 :   0.3333 0.1667 0.0000  plane waves:   24058
 k-point  8 :   0.5000 0.1667 0.0000  plane waves:   24084
 k-point  9 :   0.0000 0.3333 0.0000  plane waves:   24034
 k-point 10 :   0.1667 0.3333-0.0000  plane waves:   24070
 k-point 11 :   0.3333 0.3333 0.0000  plane waves:   24034
 k-point 12 :   0.5000 0.3333 0.0000  plane waves:   24024
 k-point 13 :   0.0000 0.5000 0.0000  plane waves:   24084
 k-point 14 :   0.1667 0.5000-0.0000  plane waves:   24048
 k-point 15 :   0.3333 0.5000 0.0000  plane waves:   24024
 k-point 16 :   0.5000 0.5000 0.0000  plane waves:   24032
 k-point 17 :   0.0000-0.3333 0.0000  plane waves:   24034
 k-point 18 :   0.1667-0.3333-0.0000  plane waves:   24070
 k-point 19 :   0.3333-0.3333 0.0000  plane waves:   24034
 k-point 20 :   0.5000-0.3333 0.0000  plane waves:   24024
 k-point 21 :   0.0000-0.1667 0.0000  plane waves:   24122
 k-point 22 :   0.1667-0.1667-0.0000  plane waves:   24068
 k-point 23 :   0.3333-0.1667 0.0000  plane waves:   24058
 k-point 24 :   0.5000-0.1667 0.0000  plane waves:   24084
 k-point 25 :   0.0000 0.0000 0.3333  plane waves:   24060
 k-point 26 :   0.1667 0.0000 0.3333  plane waves:   24092
 k-point 27 :   0.3333 0.0000 0.3333  plane waves:   24054
 k-point 28 :   0.5000 0.0000 0.3333  plane waves:   24118
 k-point 29 :  -0.3333 0.0000 0.3333  plane waves:   24076
 k-point 30 :  -0.1667 0.0000 0.3333  plane waves:   24076
 k-point 31 :   0.0000 0.1667 0.3333  plane waves:   24076
 k-point 32 :   0.1667 0.1667 0.3333  plane waves:   24044
 k-point 33 :   0.3333 0.1667 0.3333  plane waves:   24060
 k-point 34 :   0.5000 0.1667 0.3333  plane waves:   24086
 k-point 35 :  -0.3333 0.1667 0.3333  plane waves:   24040
 k-point 36 :  -0.1667 0.1667 0.3333  plane waves:   24052
 k-point 37 :   0.0000 0.3333 0.3333  plane waves:   24072
 k-point 38 :   0.1667 0.3333 0.3333  plane waves:   24074
 k-point 39 :   0.3333 0.3333 0.3333  plane waves:   24022
 k-point 40 :   0.5000 0.3333 0.3333  plane waves:   24028
 k-point 41 :  -0.3333 0.3333 0.3333  plane waves:   24026
 k-point 42 :  -0.1667 0.3333 0.3333  plane waves:   24048
 k-point 43 :   0.0000 0.5000 0.3333  plane waves:   24100
 k-point 44 :   0.1667 0.5000 0.3333  plane waves:   24096
 k-point 45 :   0.3333 0.5000 0.3333  plane waves:   23968
 k-point 46 :   0.5000 0.5000 0.3333  plane waves:   23968
 k-point 47 :  -0.3333 0.5000 0.3333  plane waves:   24032
 k-point 48 :  -0.1667 0.5000 0.3333  plane waves:   24092
 k-point 49 :   0.0000-0.3333 0.3333  plane waves:   24072
 k-point 50 :   0.1667-0.3333 0.3333  plane waves:   24074
 k-point 51 :   0.3333-0.3333 0.3333  plane waves:   24022
 k-point 52 :   0.5000-0.3333 0.3333  plane waves:   24028
 k-point 53 :  -0.3333-0.3333 0.3333  plane waves:   24026
 k-point 54 :  -0.1667-0.3333 0.3333  plane waves:   24048
 k-point 55 :   0.0000-0.1667 0.3333  plane waves:   24076
 k-point 56 :   0.1667-0.1667 0.3333  plane waves:   24044
 k-point 57 :   0.3333-0.1667 0.3333  plane waves:   24060
 k-point 58 :   0.5000-0.1667 0.3333  plane waves:   24086
 k-point 59 :  -0.3333-0.1667 0.3333  plane waves:   24040
 k-point 60 :  -0.1667-0.1667 0.3333  plane waves:   24052

 maximum and minimum number of plane-waves per node :     24122    23968

 maximum number of plane-waves:     24122
 maximum index in each direction: 
   IXMAX=   11   IYMAX=   11   IZMAX=   22
   IXMIN=  -11   IYMIN=  -11   IZMIN=  -22


 serial   3D FFT for wavefunctions
 parallel 3D FFT for charge:
    minimum data exchange during FFTs selected (reduces bandwidth)


 total amount of memory used by VASP MPI-rank0   410429. kBytes
=======================================================================

   base      :      30000. kBytes
   nonl-proj :     321650. kBytes
   fftplans  :       2735. kBytes
   grid      :      30965. kBytes
   one-center:        995. kBytes
   wavefun   :      24084. kBytes
 
     INWAV:  cpu time   15.6489: real time   15.7697
 Broyden mixing: mesh for mixing (old mesh)
   NGX = 23   NGY = 23   NGZ = 45
  (NGX  = 96   NGY  = 96   NGZ  =180)
  gives a total of  23805 points

 initial charge density was supplied:
 number of electron     171.9999982 magnetization      -0.0000000      0.0000075      0.0000000
 keeping initial charge density in first step


--------------------------------------------------------------------------------------------------------


 Maximum index for augmentation-charges          894 (set IRDMAX)


--------------------------------------------------------------------------------------------------------


 First call to EWALD:  gamma=   0.269
 Maximum number of real-space cells 3x 3x 2
 Maximum number of reciprocal cells 2x 2x 4

    FEWALD:  cpu time    0.0016: real time    0.0016


--------------------------------------- Iteration      1(   1)  ---------------------------------------


    POTLOK:  cpu time    0.3158: real time    0.3379
    SETDIJ:  cpu time    0.5920: real time    0.5941
     EDDAV:  cpu time   79.1214: real time   79.6301
 BZINTS: Fermi energy:  5.099339;172.000000 electrons
         Band energy:***********;  BLOECHL correction:  0.000000
       DOS:  cpu time    0.0400: real time    0.0401
    CHARGE:  cpu time    1.4697: real time    1.4818
    MIXING:  cpu time    0.0033: real time    0.0033
    --------------------------------------------
      LOOP:  cpu time   81.5423: real time   82.0874

 eigenvalue-minimisations  : 30720
 total energy-change (2. order) :-0.8186324E+02  (-0.1935940E+00)
 number of electron     171.9999982 magnetization      -0.0000000      0.0005750      0.0000000
 augmentation part       70.5656112 magnetization      -0.0000000     -0.0006557      0.0000000

 Broyden mixing:
  rms(total) = 0.78970E-01    rms(broyden)= 0.78970E-01
  rms(prec ) = 0.79033E-01
  weight for this iteration     100.00

 Free energy of the ion-electron system (eV)
  ---------------------------------------------------
  alpha Z        PSCENC =       592.43808573
  Ewald energy   TEWEN  =    -15661.50533378
  -Hartree energ DENC   =    -10711.82592064
  -exchange      EXHF   =         0.00000000
  -V(xc)+E(xc)   XCENC  =       821.62265888
  PAW double counting   =     28035.40321591   -28958.23555342
  entropy T*S    EENTRO =         0.00000000
  eigenvalues    EBANDS =     -2704.77667272
  atomic energy  EATOM  =     28505.01627691
  Solvation  Ediel_sol  =         0.00000000
  ---------------------------------------------------
  free energy    TOTEN  =       -81.86324313 eV

  energy without entropy =      -81.86324313  energy(sigma->0) =      -81.86324313


--------------------------------------------------------------------------------------------------------




--------------------------------------- Iteration      1(   2)  ---------------------------------------


    POTLOK:  cpu time    0.1386: real time    0.1426
    SETDIJ:  cpu time    0.5884: real time    0.5903
     EDDAV:  cpu time   80.8070: real time   81.2345
 BZINTS: Fermi energy:  5.013411;172.000000 electrons
         Band energy:***********;  BLOECHL correction:  0.000000
       DOS:  cpu time    0.0402: real time    0.0403
    CHARGE:  cpu time    1.4736: real time    1.4853
    MIXING:  cpu time    0.0025: real time    0.0031
    --------------------------------------------
      LOOP:  cpu time   83.0502: real time   83.4962

 eigenvalue-minimisations  : 30720
 total energy-change (2. order) :-0.8922291E-02  (-0.6498042E-02)
 number of electron     171.9999982 magnetization      -0.0000000      0.0008672      0.0000000
 augmentation part       70.5667171 magnetization      -0.0000000     -0.0012094      0.0000000

 Broyden mixing:
  rms(total) = 0.47283E-01    rms(broyden)= 0.47282E-01
  rms(prec ) = 0.47593E-01
  weight for this iteration     100.00

 eigenvalues of (default mixing * dielectric matrix)
  average eigenvalue GAMMA=   0.6355
  0.6355

 Free energy of the ion-electron system (eV)
  ---------------------------------------------------
  alpha Z        PSCENC =       592.43808573
  Ewald energy   TEWEN  =    -15661.50533378
  -Hartree energ DENC   =    -10711.53277910
  -exchange      EXHF   =         0.00000000
  -V(xc)+E(xc)   XCENC  =       821.60855281
  PAW double counting   =     28036.30025850   -28959.10700547
  entropy T*S    EENTRO =         0.00000000
  eigenvalues    EBANDS =     -2705.09022101
  atomic energy  EATOM  =     28505.01627691
  Solvation  Ediel_sol  =         0.00000000
  ---------------------------------------------------
  free energy    TOTEN  =       -81.87216542 eV

  energy without entropy =      -81.87216542  energy(sigma->0) =      -81.87216542


--------------------------------------------------------------------------------------------------------




--------------------------------------- Iteration      1(   3)  ---------------------------------------


    POTLOK:  cpu time    0.1364: real time    0.1398
    SETDIJ:  cpu time    0.5848: real time    0.5866
     EDDAV:  cpu time  329.0389: real time  330.6127
 BZINTS: Fermi energy:  5.078337;172.000000 electrons
         Band energy:***********;  BLOECHL correction:  0.000000
       DOS:  cpu time    0.0424: real time    0.0426
    CHARGE:  cpu time    1.5316: real time    1.5432
    MIXING:  cpu time    0.0038: real time    0.0038
    --------------------------------------------
      LOOP:  cpu time  331.3380: real time  332.9288

 eigenvalue-minimisations  : 57088
 total energy-change (2. order) :-0.1170548E-02  (-0.1688662E-02)
 number of electron     171.9999982 magnetization      -0.0000000      0.0005142      0.0000000
 augmentation part       70.5675297 magnetization      -0.0000000      0.0003765      0.0000000

 Broyden mixing:
  rms(total) = 0.14249E-01    rms(broyden)= 0.14249E-01
  rms(prec ) = 0.15316E-01
  weight for this iteration     100.00

 eigenvalues of (default mixing * dielectric matrix)
  average eigenvalue GAMMA=   0.5894
  0.6663  0.5124

 Free energy of the ion-electron system (eV)
  ---------------------------------------------------
  alpha Z        PSCENC =       592.43808573
  Ewald energy   TEWEN  =    -15661.50533378
  -Hartree energ DENC   =    -10711.72251222
  -exchange      EXHF   =         0.00000000
  -V(xc)+E(xc)   XCENC  =       821.61761950
  PAW double counting   =     28037.07021318   -28959.89858288
  entropy T*S    EENTRO =         0.00000000
  eigenvalues    EBANDS =     -2704.88910240
  atomic energy  EATOM  =     28505.01627691
  Solvation  Ediel_sol  =         0.00000000
  ---------------------------------------------------
  free energy    TOTEN  =       -81.87333597 eV

  energy without entropy =      -81.87333597  energy(sigma->0) =      -81.87333597


--------------------------------------------------------------------------------------------------------




--------------------------------------- Iteration      1(   4)  ---------------------------------------


    POTLOK:  cpu time    0.1559: real time    0.1610
    SETDIJ:  cpu time    0.5849: real time    0.5867
     EDDAV:  cpu time  102.6660: real time  103.1951
 BZINTS: Fermi energy:  5.060721;172.000000 electrons
         Band energy:***********;  BLOECHL correction:  0.000000
       DOS:  cpu time    0.0408: real time    0.0410
    CHARGE:  cpu time    1.4916: real time    1.5031
    MIXING:  cpu time    0.0021: real time    0.0021
    --------------------------------------------
      LOOP:  cpu time  104.9412: real time  105.4888

 eigenvalue-minimisations  : 33024
 total energy-change (2. order) :-0.6282771E-04  (-0.2794962E-02)
 number of electron     171.9999982 magnetization       0.0000000      0.0001203      0.0000000
 augmentation part       70.5665515 magnetization       0.0000000     -0.0012517      0.0000000

 Broyden mixing:
  rms(total) = 0.14077E-01    rms(broyden)= 0.14076E-01
  rms(prec ) = 0.14646E-01
  weight for this iteration     100.00

 eigenvalues of (default mixing * dielectric matrix)
  average eigenvalue GAMMA=   0.7536
  1.3518  0.6264  0.2826

 Free energy of the ion-electron system (eV)
  ---------------------------------------------------
  alpha Z        PSCENC =       592.43808573
  Ewald energy   TEWEN  =    -15661.50533378
  -Hartree energ DENC   =    -10711.56000878
  -exchange      EXHF   =         0.00000000
  -V(xc)+E(xc)   XCENC  =       821.60699453
  PAW double counting   =     28037.54501018   -28960.37836988
  entropy T*S    EENTRO =         0.00000000
  eigenvalues    EBANDS =     -2705.03605370
  atomic energy  EATOM  =     28505.01627691
  Solvation  Ediel_sol  =         0.00000000
  ---------------------------------------------------
  free energy    TOTEN  =       -81.87339880 eV

  energy without entropy =      -81.87339880  energy(sigma->0) =      -81.87339880


--------------------------------------------------------------------------------------------------------




--------------------------------------- Iteration      1(   5)  ---------------------------------------


    POTLOK:  cpu time    0.1362: real time    0.1397
    SETDIJ:  cpu time    0.5897: real time    0.5914
     EDDAV:  cpu time  332.9495: real time  334.5409
 BZINTS: Fermi energy:  5.055106;172.000000 electrons
         Band energy:***********;  BLOECHL correction:  0.000000
       DOS:  cpu time    0.0411: real time    0.0412
 


 total charge     
 
# of ion       s       p       d       tot
------------------------------------------
    1        1.316   2.405   0.000   3.720
    2        1.316   2.404   0.000   3.720
    3        1.318   2.398   0.000   3.715
    4        1.313   2.411   0.000   3.724
    5        1.316   2.404   0.000   3.720
    6        1.316   2.405   0.000   3.720
    7        1.318   2.398   0.000   3.715
    8        1.313   2.411   0.000   3.724
    9        0.258   6.201   8.917  15.376
   10        0.258   6.201   8.917  15.376
   11        0.258   6.201   8.917  15.376
   12        0.258   6.201   8.917  15.376
   13        0.346   6.346   5.827  12.519
   14        0.346   6.346   5.827  12.519
   15        0.346   6.346   5.827  12.519
   16        0.346   6.346   5.827  12.519
--------------------------------------------------
tot         12.939  69.423  58.975 141.337
 


 magnetization (x)
 
# of ion       s       p       d       tot
------------------------------------------
    1       -0.000  -0.000   0.000  -0.000
    2        0.000   0.000   0.000   0.000
    3       -0.000  -0.000   0.000  -0.000
    4       -0.000  -0.000   0.000  -0.000
    5        0.000   0.000   0.000   0.000
    6       -0.000  -0.000   0.000  -0.000
    7       -0.000  -0.000   0.000  -0.000
    8       -0.000  -0.000   0.000  -0.000
    9       -0.000  -0.000   0.000   0.000
   10        0.000  -0.000  -0.000  -0.000
   11       -0.000  -0.000   0.000   0.000
   12        0.000  -0.000  -0.000  -0.000
   13       -0.000  -0.000   0.001   0.001
   14       -0.000  -0.000  -0.001  -0.001
   15       -0.000  -0.000   0.001   0.001
   16       -0.000  -0.000  -0.001  -0.001
--------------------------------------------------
tot         -0.000  -0.000  -0.000  -0.001
 


 magnetization (y)
 
# of ion       s       p       d       tot
------------------------------------------
    1        0.000  -0.000   0.000  -0.000
    2        0.000  -0.000   0.000  -0.000
    3       -0.000  -0.000   0.000  -0.000
    4        0.000   0.000   0.000   0.000
    5        0.000  -0.000   0.000  -0.000
    6        0.000  -0.000   0.000  -0.000
    7       -0.000  -0.000   0.000  -0.000
    8        0.000   0.000   0.000   0.000
    9       -0.000   0.000  -0.000  -0.000
   10       -0.000   0.000   0.000   0.000
   11       -0.000   0.000  -0.000  -0.000
   12       -0.000   0.000   0.000   0.000
   13        0.000   0.000  -0.001  -0.000
   14        0.000   0.000  -0.001  -0.000
   15        0.000   0.000  -0.001  -0.000
   16        0.000   0.000  -0.001  -0.000
--------------------------------------------------
tot          0.000   0.000  -0.002  -0.002
 


 magnetization (z)
 
# of ion       s       p       d       tot
------------------------------------------
    1       -0.000  -0.032   0.000  -0.032
    2        0.000   0.032   0.000   0.032
    3        0.000   0.000   0.000   0.000
    4       -0.000  -0.000   0.000  -0.000
    5        0.000   0.032   0.000   0.032
    6       -0.000  -0.032   0.000  -0.032
    7        0.000   0.000   0.000   0.000
    8       -0.000  -0.000   0.000  -0.000
    9        0.000   0.001  -0.005  -0.003
   10       -0.000  -0.001   0.005   0.004
   11        0.000   0.001  -0.005  -0.003
   12       -0.000  -0.001   0.005   0.004
   13        0.020   0.054   3.657   3.732
   14       -0.020  -0.054  -3.657  -3.731
   15        0.020   0.054   3.657   3.732
   16       -0.020  -0.054  -3.657  -3.731
--------------------------------------------------
tot         -0.000  -0.000   0.000   0.000
 
    CHARGE:  cpu time    2.2944: real time    2.3085
    MIXING:  cpu time    0.0019: real time    0.0019
    --------------------------------------------
      LOOP:  cpu time  336.0127: real time  337.6236

 eigenvalue-minimisations  : 56832
 total energy-change (2. order) :-0.3856560E-03  (-0.2555504E-02)
 number of electron     171.9999982 magnetization       0.0000000     -0.0002599      0.0000000
 augmentation part       70.5672948 magnetization       0.0000000     -0.0006844      0.0000000

 Broyden mixing:
  rms(total) = 0.83625E-02    rms(broyden)= 0.83623E-02
  rms(prec ) = 0.86577E-02
  weight for this iteration     100.00

 eigenvalues of (default mixing * dielectric matrix)
  average eigenvalue GAMMA=   0.7119
  1.5736  0.6303  0.3615  0.2820

 Free energy of the ion-electron system (eV)
  ---------------------------------------------------
  alpha Z        PSCENC =       592.43808573
  Ewald energy   TEWEN  =    -15661.50533378
  -Hartree energ DENC   =    -10711.58368948
  -exchange      EXHF   =         0.00000000
  -V(xc)+E(xc)   XCENC  =       821.60499505
  PAW double counting   =     28038.72677452   -28961.56909991
  entropy T*S    EENTRO =         0.00000000
  eigenvalues    EBANDS =     -2705.00179350
  atomic energy  EATOM  =     28505.01627691
  Solvation  Ediel_sol  =         0.00000000
  ---------------------------------------------------
  free energy    TOTEN  =       -81.87378445 eV

  energy without entropy =      -81.87378445  energy(sigma->0) =      -81.87378445


--------------------------------------------------------------------------------------------------------




--------------------------------------- Iteration      1(   6)  ---------------------------------------


    POTLOK:  cpu time    0.1398: real time    0.1408
    SETDIJ:  cpu time    0.5875: real time    0.5893
     EDDAV:  cpu time   96.2331: real time   96.7306
 BZINTS: Fermi energy:  5.056294;172.000000 electrons
         Band energy:***********;  BLOECHL correction:  0.000000
       DOS:  cpu time    0.0410: real time    0.0411
    CHARGE:  cpu time    1.4734: real time    1.4851
    MIXING:  cpu time    0.0025: real time    0.0025
    --------------------------------------------
      LOOP:  cpu time   98.4772: real time   98.9895

 eigenvalue-minimisations  : 32256
 total energy-change (2. order) : 0.2024159E-03  (-0.1804176E-02)
 number of electron     171.9999982 magnetization       0.0000000     -0.0008312      0.0000000
 augmentation part       70.5671546 magnetization       0.0000000     -0.0010617      0.0000000

 Broyden mixing:
  rms(total) = 0.54379E-02    rms(broyden)= 0.54378E-02
  rms(prec ) = 0.54416E-02
  weight for this iteration     100.00

 eigenvalues of (default mixing * dielectric matrix)
  average eigenvalue GAMMA=   0.7619
  1.8586  0.8015  0.6203  0.3102  0.2190

 Free energy of the ion-electron system (eV)
  ---------------------------------------------------
  alpha Z        PSCENC =       592.43808573
  Ewald energy   TEWEN  =    -15661.50533378
  -Hartree energ DENC   =    -10711.64028324
  -exchange      EXHF   =         0.00000000
  -V(xc)+E(xc)   XCENC  =       821.60772431
  PAW double counting   =     28039.09031260   -28961.93647554
  entropy T*S    EENTRO =         0.00000000
  eigenvalues    EBANDS =     -2704.94388902
  atomic energy  EATOM  =     28505.01627691
  Solvation  Ediel_sol  =         0.00000000
  ---------------------------------------------------
  free energy    TOTEN  =       -81.87358204 eV

  energy without entropy =      -81.87358204  energy(sigma->0) =      -81.87358204


--------------------------------------------------------------------------------------------------------




--------------------------------------- Iteration      1(   7)  ---------------------------------------


    POTLOK:  cpu time    0.1363: real time    0.1397
    SETDIJ:  cpu time    0.5880: real time    0.5899
     EDDAV:  cpu time  211.1167: real time  212.1423
 BZINTS: Fermi energy:  5.056540;172.000000 electrons
         Band energy:***********;  BLOECHL correction:  0.000000
       DOS:  cpu time    0.0411: real time    0.0412
    CHARGE:  cpu time    1.4721: real time    1.4840
    MIXING:  cpu time    0.0022: real time    0.0022
    --------------------------------------------
      LOOP:  cpu time  213.3565: real time  214.3994

 eigenvalue-minimisations  : 44032
 total energy-change (2. order) :-0.9205269E-04  (-0.8786158E-03)
 number of electron     171.9999982 magnetization       0.0000000     -0.0013605      0.0000000
 augmentation part       70.5667266 magnetization       0.0000000     -0.0003478      0.0000000

 Broyden mixing:
  rms(total) = 0.33615E-02    rms(broyden)= 0.33615E-02
  rms(prec ) = 0.33838E-02
  weight for this iteration     100.00

 eigenvalues of (default mixing * dielectric matrix)
  average eigenvalue GAMMA=   0.7126
  1.9368  0.9150  0.6224  0.3101  0.2799  0.2112

 Free energy of the ion-electron system (eV)
  ---------------------------------------------------
  alpha Z        PSCENC =       592.43808573
  Ewald energy   TEWEN  =    -15661.50533378
  -Hartree energ DENC   =    -10711.66161267
  -exchange      EXHF   =         0.00000000
  -V(xc)+E(xc)   XCENC  =       821.60834248
  PAW double counting   =     28039.35242346   -28962.20017466
  entropy T*S    EENTRO =         0.00000000
  eigenvalues    EBANDS =     -2704.92168154
  atomic energy  EATOM  =     28505.01627691
  Solvation  Ediel_sol  =         0.00000000
  ---------------------------------------------------
  free energy    TOTEN  =       -81.87367409 eV

  energy without entropy =      -81.87367409  energy(sigma->0) =      -81.87367409


--------------------------------------------------------------------------------------------------------




--------------------------------------- Iteration      1(   8)  ---------------------------------------


    POTLOK:  cpu time    0.1400: real time    0.1409
    SETDIJ:  cpu time    0.5849: real time    0.5868
     EDDAV:  cpu time  118.3343: real time  118.9364
 BZINTS: Fermi energy:  5.055560;172.000000 electrons
         Band energy:***********;  BLOECHL correction:  0.000000
       DOS:  cpu time    0.0411: real time    0.0413
    CHARGE:  cpu time    1.4715: real time    1.4833
    MIXING:  cpu time    0.0025: real time    0.0025
    --------------------------------------------
      LOOP:  cpu time  120.5742: real time  121.1911

 eigenvalue-minimisations  : 34816
 total energy-change (2. order) :-0.6480192E-04  (-0.6298448E-03)
 number of electron     171.9999982 magnetization       0.0000000     -0.0017506      0.0000000
 augmentation part       70.5668455 magnetization       0.0000000     -0.0019554      0.0000000

 Broyden mixing:
  rms(total) = 0.27066E-02    rms(broyden)= 0.27065E-02
  rms(prec ) = 0.27095E-02
  weight for this iteration     100.00

 eigenvalues of (default mixing * dielectric matrix)
  average eigenvalue GAMMA=   0.7018
  2.0367  1.0665  0.6216  0.4943  0.3090  0.2210  0.1638

 Free energy of the ion-electron system (eV)
  ---------------------------------------------------
  alpha Z        PSCENC =       592.43808573
  Ewald energy   TEWEN  =    -15661.50533378
  -Hartree energ DENC   =    -10711.65046171
  -exchange      EXHF   =         0.00000000
  -V(xc)+E(xc)   XCENC  =       821.60771008
  PAW double counting   =     28039.35707327   -28962.20331326
  entropy T*S    EENTRO =         0.00000000
  eigenvalues    EBANDS =     -2704.93377613
  atomic energy  EATOM  =     28505.01627691
  Solvation  Ediel_sol  =         0.00000000
  ---------------------------------------------------
  free energy    TOTEN  =       -81.87373889 eV

  energy without entropy =      -81.87373889  energy(sigma->0) =      -81.87373889


--------------------------------------------------------------------------------------------------------




--------------------------------------- Iteration      1(   9)  ---------------------------------------


    POTLOK:  cpu time    0.1358: real time    0.1396
    SETDIJ:  cpu time    0.5866: real time    0.5885
     EDDAV:  cpu time  178.2953: real time  179.1691
 BZINTS: Fermi energy:  5.055793;172.000000 electrons
         Band energy:***********;  BLOECHL correction:  0.000000
       DOS:  cpu time    0.0411: real time    0.0413
    CHARGE:  cpu time    1.4766: real time    1.4883
    MIXING:  cpu time    0.0028: real time    0.0028
    --------------------------------------------
      LOOP:  cpu time  180.5383: real time  181.4295

 eigenvalue-minimisations  : 40960
 total energy-change (2. order) : 0.2910700E-04  (-0.2662433E-03)
 number of electron     171.9999982 magnetization       0.0000000     -0.0022057      0.0000000
 augmentation part       70.5670041 magnetization       0.0000000     -0.0011988      0.0000000

 Broyden mixing:
  rms(total) = 0.15886E-02    rms(broyden)= 0.15886E-02
  rms(prec ) = 0.16011E-02
  weight for this iteration     100.00

 eigenvalues of (default mixing * dielectric matrix)
  average eigenvalue GAMMA=   0.6835
  2.1408  1.1808  0.6075  0.6075  0.2829  0.2497  0.2497  0.1492

 Free energy of the ion-electron system (eV)
  ---------------------------------------------------
  alpha Z        PSCENC =       592.43808573
  Ewald energy   TEWEN  =    -15661.50533378
  -Hartree energ DENC   =    -10711.64057968
  -exchange      EXHF   =         0.00000000
  -V(xc)+E(xc)   XCENC  =       821.60726406
  PAW double counting   =     28039.33316201   -28962.17802314
  entropy T*S    EENTRO =         0.00000000
  eigenvalues    EBANDS =     -2704.94456189
  atomic energy  EATOM  =     28505.01627691
  Solvation  Ediel_sol  =         0.00000000
  ---------------------------------------------------
  free energy    TOTEN  =       -81.87370979 eV

  energy without entropy =      -81.87370979  energy(sigma->0) =      -81.87370979


--------------------------------------------------------------------------------------------------------




--------------------------------------- Iteration      1(  10)  ---------------------------------------


    POTLOK:  cpu time    0.1410: real time    0.1421
    SETDIJ:  cpu time    0.5893: real time    0.5911
     EDDAV:  cpu time  115.2420: real time  115.8319
 BZINTS: Fermi energy:  5.055909;172.000000 electrons
         Band energy:***********;  BLOECHL correction:  0.000000
       DOS:  cpu time    0.0411: real time    0.0412
 


 total charge     
 
# of ion       s       p       d       tot
------------------------------------------
    1        1.316   2.404   0.000   3.720
    2        1.316   2.404   0.000   3.720
    3        1.318   2.398   0.000   3.715
    4        1.313   2.411   0.000   3.724
    5        1.316   2.404   0.000   3.720
    6        1.316   2.404   0.000   3.720
    7        1.318   2.398   0.000   3.715
    8        1.313   2.411   0.000   3.724
    9        0.258   6.201   8.916  15.375
   10        0.258   6.201   8.916  15.375
[...]
     0.0000000     0.0000000     0.0000000     0.0000000     0.0000000     0.0000000     0.0000000

 Ion:    5  E_soc:     -0.0017463
 l=   1
     0.0000000    -0.0002503    -0.0003661
    -0.0002503     0.0000000    -0.0002568
    -0.0003661    -0.0002568     0.0000000
 l=   2
     0.0000000     0.0000000     0.0000000     0.0000000     0.0000000
     0.0000000     0.0000000     0.0000000     0.0000000     0.0000000
     0.0000000     0.0000000     0.0000000     0.0000000     0.0000000
     0.0000000     0.0000000     0.0000000     0.0000000     0.0000000
     0.0000000     0.0000000     0.0000000     0.0000000     0.0000000
 l=   3
     0.0000000     0.0000000     0.0000000     0.0000000     0.0000000     0.0000000     0.0000000
     0.0000000     0.0000000     0.0000000     0.0000000     0.0000000     0.0000000     0.0000000
     0.0000000     0.0000000     0.0000000     0.0000000     0.0000000     0.0000000     0.0000000
     0.0000000     0.0000000     0.0000000     0.0000000     0.0000000     0.0000000     0.0000000
     0.0000000     0.0000000     0.0000000     0.0000000     0.0000000     0.0000000     0.0000000
     0.0000000     0.0000000     0.0000000     0.0000000     0.0000000     0.0000000     0.0000000
     0.0000000     0.0000000     0.0000000     0.0000000     0.0000000     0.0000000     0.0000000

 Ion:    6  E_soc:     -0.0017463
 l=   1
     0.0000000    -0.0002503    -0.0003661
    -0.0002503     0.0000000    -0.0002568
    -0.0003661    -0.0002568     0.0000000
 l=   2
     0.0000000     0.0000000     0.0000000     0.0000000     0.0000000
     0.0000000     0.0000000     0.0000000     0.0000000     0.0000000
     0.0000000     0.0000000     0.0000000     0.0000000     0.0000000
     0.0000000     0.0000000     0.0000000     0.0000000     0.0000000
     0.0000000     0.0000000     0.0000000     0.0000000     0.0000000
 l=   3
     0.0000000     0.0000000     0.0000000     0.0000000     0.0000000     0.0000000     0.0000000
     0.0000000     0.0000000     0.0000000     0.0000000     0.0000000     0.0000000     0.0000000
     0.0000000     0.0000000     0.0000000     0.0000000     0.0000000     0.0000000     0.0000000
     0.0000000     0.0000000     0.0000000     0.0000000     0.0000000     0.0000000     0.0000000
     0.0000000     0.0000000     0.0000000     0.0000000     0.0000000     0.0000000     0.0000000
     0.0000000     0.0000000     0.0000000     0.0000000     0.0000000     0.0000000     0.0000000
     0.0000000     0.0000000     0.0000000     0.0000000     0.0000000     0.0000000     0.0000000

 Ion:    7  E_soc:     -0.0017935
 l=   1
     0.0000000    -0.0002537    -0.0003939
    -0.0002537     0.0000000    -0.0002492
    -0.0003939    -0.0002492     0.0000000
 l=   2
     0.0000000     0.0000000     0.0000000     0.0000000     0.0000000
     0.0000000     0.0000000     0.0000000     0.0000000     0.0000000
     0.0000000     0.0000000     0.0000000     0.0000000     0.0000000
     0.0000000     0.0000000     0.0000000     0.0000000     0.0000000
     0.0000000     0.0000000     0.0000000     0.0000000     0.0000000
 l=   3
     0.0000000     0.0000000     0.0000000     0.0000000     0.0000000     0.0000000     0.0000000
     0.0000000     0.0000000     0.0000000     0.0000000     0.0000000     0.0000000     0.0000000
     0.0000000     0.0000000     0.0000000     0.0000000     0.0000000     0.0000000     0.0000000
     0.0000000     0.0000000     0.0000000     0.0000000     0.0000000     0.0000000     0.0000000
     0.0000000     0.0000000     0.0000000     0.0000000     0.0000000     0.0000000     0.0000000
     0.0000000     0.0000000     0.0000000     0.0000000     0.0000000     0.0000000     0.0000000
     0.0000000     0.0000000     0.0000000     0.0000000     0.0000000     0.0000000     0.0000000

 Ion:    8  E_soc:     -0.0016790
 l=   1
     0.0000000    -0.0002561    -0.0003337
    -0.0002561     0.0000000    -0.0002498
    -0.0003337    -0.0002498     0.0000000
 l=   2
     0.0000000     0.0000000     0.0000000     0.0000000     0.0000000
     0.0000000     0.0000000     0.0000000     0.0000000     0.0000000
     0.0000000     0.0000000     0.0000000     0.0000000     0.0000000
     0.0000000     0.0000000     0.0000000     0.0000000     0.0000000
     0.0000000     0.0000000     0.0000000     0.0000000     0.0000000
 l=   3
     0.0000000     0.0000000     0.0000000     0.0000000     0.0000000     0.0000000     0.0000000
     0.0000000     0.0000000     0.0000000     0.0000000     0.0000000     0.0000000     0.0000000
     0.0000000     0.0000000     0.0000000     0.0000000     0.0000000     0.0000000     0.0000000
     0.0000000     0.0000000     0.0000000     0.0000000     0.0000000     0.0000000     0.0000000
     0.0000000     0.0000000     0.0000000     0.0000000     0.0000000     0.0000000     0.0000000
     0.0000000     0.0000000     0.0000000     0.0000000     0.0000000     0.0000000     0.0000000
     0.0000000     0.0000000     0.0000000     0.0000000     0.0000000     0.0000000     0.0000000

 Ion:    9  E_soc:     -0.0618797
 l=   1
     0.0000000    -0.0085641    -0.0085554
    -0.0085641     0.0000000    -0.0085641
    -0.0085554    -0.0085641     0.0000000
 l=   2
     0.0000000    -0.0004015     0.0000000    -0.0003961    -0.0013624
    -0.0004015     0.0000000    -0.0010713    -0.0002988    -0.0003415
     0.0000000    -0.0010713     0.0000000    -0.0010500     0.0000000
    -0.0003961    -0.0002988    -0.0010500     0.0000000    -0.0003347
    -0.0013624    -0.0003415     0.0000000    -0.0003347     0.0000000
 l=   3
     0.0000000     0.0000000     0.0000000     0.0000000     0.0000000     0.0000000     0.0000000
     0.0000000     0.0000000     0.0000000     0.0000000     0.0000000     0.0000000     0.0000000
     0.0000000     0.0000000     0.0000000     0.0000000     0.0000000     0.0000000     0.0000000
     0.0000000     0.0000000     0.0000000     0.0000000     0.0000000     0.0000000     0.0000000
     0.0000000     0.0000000     0.0000000     0.0000000     0.0000000     0.0000000     0.0000000
     0.0000000     0.0000000     0.0000000     0.0000000     0.0000000     0.0000000     0.0000000
     0.0000000     0.0000000     0.0000000     0.0000000     0.0000000     0.0000000     0.0000000

 Ion:   10  E_soc:     -0.0618797
 l=   1
     0.0000000    -0.0085641    -0.0085554
    -0.0085641     0.0000000    -0.0085641
    -0.0085554    -0.0085641     0.0000000
 l=   2
     0.0000000    -0.0004015     0.0000000    -0.0003961    -0.0013624
    -0.0004015     0.0000000    -0.0010713    -0.0002988    -0.0003415
     0.0000000    -0.0010713     0.0000000    -0.0010500     0.0000000
    -0.0003961    -0.0002988    -0.0010500     0.0000000    -0.0003347
    -0.0013624    -0.0003415     0.0000000    -0.0003347     0.0000000
 l=   3
     0.0000000     0.0000000     0.0000000     0.0000000     0.0000000     0.0000000     0.0000000
     0.0000000     0.0000000     0.0000000     0.0000000     0.0000000     0.0000000     0.0000000
     0.0000000     0.0000000     0.0000000     0.0000000     0.0000000     0.0000000     0.0000000
     0.0000000     0.0000000     0.0000000     0.0000000     0.0000000     0.0000000     0.0000000
     0.0000000     0.0000000     0.0000000     0.0000000     0.0000000     0.0000000     0.0000000
     0.0000000     0.0000000     0.0000000     0.0000000     0.0000000     0.0000000     0.0000000
     0.0000000     0.0000000     0.0000000     0.0000000     0.0000000     0.0000000     0.0000000

 Ion:   11  E_soc:     -0.0618797
 l=   1
     0.0000000    -0.0085641    -0.0085554
    -0.0085641     0.0000000    -0.0085641
    -0.0085554    -0.0085641     0.0000000
 l=   2
     0.0000000    -0.0004015     0.0000000    -0.0003961    -0.0013624
    -0.0004015     0.0000000    -0.0010713    -0.0002988    -0.0003415
     0.0000000    -0.0010713     0.0000000    -0.0010500     0.0000000
    -0.0003961    -0.0002988    -0.0010500     0.0000000    -0.0003347
    -0.0013624    -0.0003415     0.0000000    -0.0003347     0.0000000
 l=   3
     0.0000000     0.0000000     0.0000000     0.0000000     0.0000000     0.0000000     0.0000000
     0.0000000     0.0000000     0.0000000     0.0000000     0.0000000     0.0000000     0.0000000
     0.0000000     0.0000000     0.0000000     0.0000000     0.0000000     0.0000000     0.0000000
     0.0000000     0.0000000     0.0000000     0.0000000     0.0000000     0.0000000     0.0000000
     0.0000000     0.0000000     0.0000000     0.0000000     0.0000000     0.0000000     0.0000000
     0.0000000     0.0000000     0.0000000     0.0000000     0.0000000     0.0000000     0.0000000
     0.0000000     0.0000000     0.0000000     0.0000000     0.0000000     0.0000000     0.0000000

 Ion:   12  E_soc:     -0.0618797
 l=   1
     0.0000000    -0.0085641    -0.0085554
    -0.0085641     0.0000000    -0.0085641
    -0.0085554    -0.0085641     0.0000000
 l=   2
     0.0000000    -0.0004015     0.0000000    -0.0003961    -0.0013624
    -0.0004015     0.0000000    -0.0010713    -0.0002988    -0.0003415
     0.0000000    -0.0010713     0.0000000    -0.0010500     0.0000000
    -0.0003961    -0.0002988    -0.0010500     0.0000000    -0.0003347
    -0.0013624    -0.0003415     0.0000000    -0.0003347     0.0000000
 l=   3
     0.0000000     0.0000000     0.0000000     0.0000000     0.0000000     0.0000000     0.0000000
     0.0000000     0.0000000     0.0000000     0.0000000     0.0000000     0.0000000     0.0000000
     0.0000000     0.0000000     0.0000000     0.0000000     0.0000000     0.0000000     0.0000000
     0.0000000     0.0000000     0.0000000     0.0000000     0.0000000     0.0000000     0.0000000
     0.0000000     0.0000000     0.0000000     0.0000000     0.0000000     0.0000000     0.0000000
     0.0000000     0.0000000     0.0000000     0.0000000     0.0000000     0.0000000     0.0000000
     0.0000000     0.0000000     0.0000000     0.0000000     0.0000000     0.0000000     0.0000000

 Ion:   13  E_soc:     -0.0365414
 l=   1
     0.0000000    -0.0042835    -0.0043111
    -0.0042835     0.0000000    -0.0042808
    -0.0043111    -0.0042808     0.0000000
 l=   2
     0.0000000    -0.0003514     0.0000000    -0.0003534    -0.0009265
    -0.0003514     0.0000000    -0.0013031    -0.0002890    -0.0004230
     0.0000000    -0.0013031     0.0000000    -0.0013168     0.0000000
    -0.0003534    -0.0002890    -0.0013168     0.0000000    -0.0004321
    -0.0009265    -0.0004230     0.0000000    -0.0004321     0.0000000
 l=   3
     0.0000000     0.0000000     0.0000000     0.0000000     0.0000000     0.0000000     0.0000000
     0.0000000     0.0000000     0.0000000     0.0000000     0.0000000     0.0000000     0.0000000
     0.0000000     0.0000000     0.0000000     0.0000000     0.0000000     0.0000000     0.0000000
     0.0000000     0.0000000     0.0000000     0.0000000     0.0000000     0.0000000     0.0000000
     0.0000000     0.0000000     0.0000000     0.0000000     0.0000000     0.0000000     0.0000000
     0.0000000     0.0000000     0.0000000     0.0000000     0.0000000     0.0000000     0.0000000
     0.0000000     0.0000000     0.0000000     0.0000000     0.0000000     0.0000000     0.0000000

 Ion:   14  E_soc:     -0.0365414
 l=   1
     0.0000000    -0.0042835    -0.0043111
    -0.0042835     0.0000000    -0.0042808
    -0.0043111    -0.0042808     0.0000000
 l=   2
     0.0000000    -0.0003514     0.0000000    -0.0003534    -0.0009265
    -0.0003514     0.0000000    -0.0013031    -0.0002890    -0.0004230
     0.0000000    -0.0013031     0.0000000    -0.0013168     0.0000000
    -0.0003534    -0.0002890    -0.0013168     0.0000000    -0.0004321
    -0.0009265    -0.0004230     0.0000000    -0.0004321     0.0000000
 l=   3
     0.0000000     0.0000000     0.0000000     0.0000000     0.0000000     0.0000000     0.0000000
     0.0000000     0.0000000     0.0000000     0.0000000     0.0000000     0.0000000     0.0000000
     0.0000000     0.0000000     0.0000000     0.0000000     0.0000000     0.0000000     0.0000000
     0.0000000     0.0000000     0.0000000     0.0000000     0.0000000     0.0000000     0.0000000
     0.0000000     0.0000000     0.0000000     0.0000000     0.0000000     0.0000000     0.0000000
     0.0000000     0.0000000     0.0000000     0.0000000     0.0000000     0.0000000     0.0000000
     0.0000000     0.0000000     0.0000000     0.0000000     0.0000000     0.0000000     0.0000000

 Ion:   15  E_soc:     -0.0365414
 l=   1
     0.0000000    -0.0042835    -0.0043111
    -0.0042835     0.0000000    -0.0042808
    -0.0043111    -0.0042808     0.0000000
 l=   2
     0.0000000    -0.0003514     0.0000000    -0.0003534    -0.0009265
    -0.0003514     0.0000000    -0.0013031    -0.0002890    -0.0004230
     0.0000000    -0.0013031     0.0000000    -0.0013168     0.0000000
    -0.0003534    -0.0002890    -0.0013168     0.0000000    -0.0004321
    -0.0009265    -0.0004230     0.0000000    -0.0004321     0.0000000
 l=   3
     0.0000000     0.0000000     0.0000000     0.0000000     0.0000000     0.0000000     0.0000000
     0.0000000     0.0000000     0.0000000     0.0000000     0.0000000     0.0000000     0.0000000
     0.0000000     0.0000000     0.0000000     0.0000000     0.0000000     0.0000000     0.0000000
     0.0000000     0.0000000     0.0000000     0.0000000     0.0000000     0.0000000     0.0000000
     0.0000000     0.0000000     0.0000000     0.0000000     0.0000000     0.0000000     0.0000000
     0.0000000     0.0000000     0.0000000     0.0000000     0.0000000     0.0000000     0.0000000
     0.0000000     0.0000000     0.0000000     0.0000000     0.0000000     0.0000000     0.0000000

 Ion:   16  E_soc:     -0.0365414
 l=   1
     0.0000000    -0.0042835    -0.0043111
    -0.0042835     0.0000000    -0.0042808
    -0.0043111    -0.0042808     0.0000000
 l=   2
     0.0000000    -0.0003514     0.0000000    -0.0003534    -0.0009265
    -0.0003514     0.0000000    -0.0013031    -0.0002890    -0.0004230
     0.0000000    -0.0013031     0.0000000    -0.0013168     0.0000000
    -0.0003534    -0.0002890    -0.0013168     0.0000000    -0.0004321
    -0.0009265    -0.0004230     0.0000000    -0.0004321     0.0000000
 l=   3
     0.0000000     0.0000000     0.0000000     0.0000000     0.0000000     0.0000000     0.0000000
     0.0000000     0.0000000     0.0000000     0.0000000     0.0000000     0.0000000     0.0000000
     0.0000000     0.0000000     0.0000000     0.0000000     0.0000000     0.0000000     0.0000000
     0.0000000     0.0000000     0.0000000     0.0000000     0.0000000     0.0000000     0.0000000
     0.0000000     0.0000000     0.0000000     0.0000000     0.0000000     0.0000000     0.0000000
     0.0000000     0.0000000     0.0000000     0.0000000     0.0000000     0.0000000     0.0000000
     0.0000000     0.0000000     0.0000000     0.0000000     0.0000000     0.0000000     0.0000000
 


 total charge     
 
# of ion       s       p       d       tot
------------------------------------------
    1        1.316   2.404   0.000   3.720
    2        1.316   2.404   0.000   3.720
    3        1.318   2.398   0.000   3.715
    4        1.313   2.411   0.000   3.724
    5        1.316   2.404   0.000   3.720
    6        1.316   2.404   0.000   3.720
    7        1.318   2.398   0.000   3.715
    8        1.313   2.411   0.000   3.724
    9        0.258   6.201   8.916  15.375
   10        0.258   6.201   8.916  15.375
   11        0.258   6.201   8.916  15.375
   12        0.258   6.201   8.916  15.375
   13        0.346   6.346   5.827  12.520
   14        0.346   6.346   5.827  12.520
   15        0.346   6.346   5.827  12.520
   16        0.346   6.346   5.827  12.520
--------------------------------------------------
tot         12.939  69.422  58.975 141.336
 


 magnetization (x)
 
# of ion       s       p       d       tot
------------------------------------------
    1       -0.000   0.000   0.000   0.000
    2        0.000  -0.000   0.000  -0.000
    3       -0.000  -0.000   0.000  -0.000
    4       -0.000  -0.000   0.000  -0.000
    5        0.000  -0.000   0.000  -0.000
    6       -0.000   0.000   0.000   0.000
    7       -0.000  -0.000   0.000  -0.000
    8       -0.000  -0.000   0.000  -0.000
    9       -0.000  -0.000   0.000   0.000
   10        0.000   0.000  -0.000  -0.000
   11       -0.000  -0.000   0.000   0.000
   12        0.000   0.000  -0.000  -0.000
   13       -0.000  -0.000  -0.030  -0.031
   14        0.000   0.000   0.030   0.031
   15       -0.000  -0.000  -0.030  -0.031
   16        0.000   0.000   0.030   0.031
--------------------------------------------------
tot         -0.000  -0.000  -0.001  -0.001
 


 magnetization (y)
 
# of ion       s       p       d       tot
------------------------------------------
    1       -0.000  -0.000   0.000  -0.000
    2        0.000  -0.000   0.000  -0.000
    3       -0.000   0.000   0.000   0.000
    4        0.000   0.000   0.000   0.000
    5        0.000  -0.000   0.000  -0.000
    6       -0.000  -0.000   0.000  -0.000
    7       -0.000   0.000   0.000   0.000
    8        0.000   0.000   0.000   0.000
    9       -0.000   0.000  -0.000  -0.000
   10       -0.000   0.000   0.000   0.000
   11       -0.000   0.000  -0.000  -0.000
   12       -0.000   0.000   0.000   0.000
   13       -0.000  -0.000  -0.004  -0.004
   14       -0.000  -0.000  -0.004  -0.004
   15       -0.000  -0.000  -0.004  -0.004
   16       -0.000  -0.000  -0.004  -0.004
--------------------------------------------------
tot         -0.000  -0.000  -0.015  -0.016
 


 magnetization (z)
 
# of ion       s       p       d       tot
------------------------------------------
    1       -0.000  -0.032   0.000  -0.032
    2        0.000   0.032   0.000   0.032
    3        0.000   0.000   0.000   0.000
    4       -0.000  -0.000   0.000  -0.000
    5        0.000   0.032   0.000   0.032
    6       -0.000  -0.032   0.000  -0.032
    7        0.000   0.000   0.000   0.000
    8       -0.000  -0.000   0.000  -0.000
    9        0.000   0.001  -0.005  -0.003
   10       -0.000  -0.001   0.005   0.004
   11        0.000   0.001  -0.005  -0.003
   12       -0.000  -0.001   0.005   0.004
   13        0.020   0.054   3.656   3.731
   14       -0.020  -0.054  -3.656  -3.731
   15        0.020   0.054   3.656   3.731
   16       -0.020  -0.054  -3.656  -3.731
--------------------------------------------------
tot         -0.000  -0.000   0.001   0.000
 
 BZINTS: Fermi energy:  5.055889;172.000000 electrons
         Band energy:***********;  BLOECHL correction:  0.000000
 BZINTS: Fermi energy:  5.055889;172.000000 electrons
         Band energy:***********;  BLOECHL correction:  0.000000
 BZINTS: Fermi energy:  5.055889;172.000000 electrons
         Band energy:***********;  BLOECHL correction:  0.000000
 BZINTS: Fermi energy:  5.055889;172.000000 electrons
         Band energy:***********;  BLOECHL correction:  0.000000

 total amount of memory used by VASP MPI-rank0   410429. kBytes
=======================================================================

   base      :      30000. kBytes
   nonl-proj :     321650. kBytes
   fftplans  :       2735. kBytes
   grid      :      30965. kBytes
   one-center:        995. kBytes
   wavefun   :      24084. kBytes
 
  
  
 General timing and accounting informations for this job:
 ========================================================
  
                  Total CPU time used (sec):    22571.404
                            User time (sec):    22556.298
                          System time (sec):       15.107
                         Elapsed time (sec):    22843.788
  
                   Maximum memory used (kb):      864540.
                   Average memory used (kb):           0.
  
                          Minor page faults:      3684099
                          Major page faults:         5850
                 Voluntary context switches:         7343
