 vasp.5.4.4.18Apr17-6-g9f103f2a35 (build Oct 30 2023 17:30:16) complex          
  
 executed on             LinuxIFC date 2024.06.29  00:49:03
 running on  256 total cores
 distrk:  each k-point on  256 cores,    1 groups
 distr:  one band on NCORES_PER_BAND=   1 cores,  256 groups


--------------------------------------------------------------------------------------------------------


 INCAR:
 POTCAR:    PAW_PBE S 06Sep2000                   
 POTCAR:     PAW_PBE Cu_pv 06Sep2000              
 POTCAR:     PAW_PBE Fe_pv 02Aug2007              

 ----------------------------------------------------------------------------- 
|                                                                             |
|           W    W    AA    RRRRR   N    N  II  N    N   GGGG   !!!           |
|           W    W   A  A   R    R  NN   N  II  NN   N  G    G  !!!           |
|           W    W  A    A  R    R  N N  N  II  N N  N  G       !!!           |
|           W WW W  AAAAAA  RRRRR   N  N N  II  N  N N  G  GGG   !            |
|           WW  WW  A    A  R   R   N   NN  II  N   NN  G    G                |
|           W    W  A    A  R    R  N    N  II  N    N   GGGG   !!!           |
|                                                                             |
|      For optimal performance we recommend to set                            |
|        NCORE= 4 - approx SQRT( number of cores)                             |
|      NCORE specifies how many cores store one orbital (NPAR=cpu/NCORE).     |
|      This setting can  greatly improve the performance of VASP for DFT.     |
|      The default,   NCORE=1            might be grossly inefficient         |
|      on modern multi-core architectures or massively parallel machines.     |
|      Do your own testing !!!!                                               |
|      Unfortunately you need to use the default for GW and RPA calculations. |
|      (for HF NCORE is supported but not extensively tested yet)             |
|                                                                             |
 ----------------------------------------------------------------------------- 

 POTCAR:    PAW_PBE S 06Sep2000                   
   SHA256 =  0fc7481fb0695f01bdc6462160264c5c84044ae9ec85a907d398b887a2bc3132 S/
   COPYR  = (c) Copyright 06Sep2000 Georg Kresse                                
   COPYR  = This file is part of the software VASP. Any use, copying, and all ot
   COPYR  = If you do not have a valid VASP license, you may not use, copy or di
   VRHFIN =S : s2p4                                                             
   LEXCH  = PE                                                                  
   EATOM  =   276.8230 eV,   20.3459 Ry                                         
                                                                                
   TITEL  = PAW_PBE S 06Sep2000                                                 
   LULTRA =        F    use ultrasoft PP ?                                      
   IUNSCR =        1    unscreen: 0-lin 1-nonlin 2-no                           
   RPACOR =    1.500    partial core radius                                     
   POMASS =   32.066; ZVAL   =    6.000    mass and valenz                      
   RCORE  =    1.900    outmost cutoff radius                                   
   RWIGS  =    2.200; RWIGS  =    1.164    wigner-seitz radius (au A)           
   ENMAX  =  258.689; ENMIN  =  194.016 eV                                      
   ICORE  =        2    local potential                                         
   LCOR   =        T    correct aug charges                                     
   LPAW   =        T    paw PP                                                  
   EAUG   =  335.092                                                            
   DEXC   =    0.000                                                            
   RMAX   =    1.942    core radius for proj-oper                               
   RAUG   =    1.300    factor for augmentation sphere                          
   RDEP   =    1.954    radius for radial grids                                 
   RDEPT  =    1.744    core radius for aug-charge                              
                                                                                
   Atomic configuration                                                         
    6 entries                                                                   
     n  l   j            E        occ.                                          
     1  0  0.50     -2405.8406   2.0000                                         
     2  0  0.50      -211.7007   2.0000                                         
     2  1  1.50      -156.4958   6.0000                                         
     3  0  0.50       -17.2562   2.0000                                         
     3  1  0.50        -7.0085   4.0000                                         
     3  2  1.50        -6.8029   0.0000                                         
   Description                                                                  
     l       E           TYP  RCUT    TYP  RCUT                                 
     0    -17.2561641     23  1.900                                             
     0    -15.8743224     23  1.900                                             
     1     -7.0085400     23  1.900                                             
     1     -2.7779785     23  1.900                                             
     2     -6.8029130     23  1.900                                             
  local pseudopotential read in
  partial core-charges read in
  partial kinetic energy density read in
  atomic valenz-charges read in
  non local Contribution for L=           0  read in
    real space projection operators read in
  non local Contribution for L=           0  read in
    real space projection operators read in
  non local Contribution for L=           1  read in
    real space projection operators read in
  non local Contribution for L=           1  read in
    real space projection operators read in
    PAW grid and wavefunctions read in
 
   number of l-projection  operators is LMAX  =           4
   number of lm-projection operators is LMMAX =           8
 
 POTCAR:     PAW_PBE Cu_pv 06Sep2000              
   SHA256 =  cb7b504e2ea725fe1f25c85a9ac77d4012ce94cd394135b722c4e25ec297f1cb Cu
   COPYR  = (c) Copyright 06Sep2000 Georg Kresse                                
   COPYR  = This file is part of the software VASP. Any use, copying, and all ot
   COPYR  = If you do not have a valid VASP license, you may not use, copy or di
   VRHFIN =Cu: d10 p1                                                           
   LEXCH  = PE                                                                  
   EATOM  =  4120.1201 eV,  302.8203 Ry                                         
                                                                                
   TITEL  = PAW_PBE Cu_pv 06Sep2000                                             
   LULTRA =        F    use ultrasoft PP ?                                      
   IUNSCR =        1    unscreen: 0-lin 1-nonlin 2-no                           
   RPACOR =    1.500    partial core radius                                     
   POMASS =   63.546; ZVAL   =   17.000    mass and valenz                      
   RCORE  =    2.000    outmost cutoff radius                                   
   RWIGS  =    2.000; RWIGS  =    1.058    wigner-seitz radius (au A)           
   ENMAX  =  368.648; ENMIN  =  276.486 eV                                      
   RCLOC  =    1.304    cutoff for local pot                                    
   LCOR   =        T    correct aug charges                                     
   LPAW   =        T    paw PP                                                  
   EAUG   =  758.233                                                            
   DEXC   =    0.000                                                            
   RMAX   =    2.046    core radius for proj-oper                               
   RAUG   =    1.300    factor for augmentation sphere                          
   RDEP   =    2.025    radius for radial grids                                 
   RDEPT  =    1.558    core radius for aug-charge                              
                                                                                
   Atomic configuration                                                         
    8 entries                                                                   
     n  l   j            E        occ.                                          
     1  0  0.50     -8850.2467   2.0000                                         
     2  0  0.50     -1062.3498   2.0000                                         
     2  1  1.50      -916.8226   6.0000                                         
     3  0  0.50      -114.6929   2.0000                                         
     3  1  1.50       -72.1325   6.0000                                         
     3  2  2.50        -5.0394  10.0000                                         
     4  0  0.50        -4.6097   1.0000                                         
     4  3  2.50        -1.3606   0.0000                                         
   Description                                                                  
     l       E           TYP  RCUT    TYP  RCUT                                 
     1    -72.1324777     23  1.700                                             
     1     -1.3605826     23  1.700                                             
     2     -5.0393776     23  2.000                                             
     2     -6.3999602     23  2.000                                             
     0     -4.6097062     23  1.800                                             
     0     14.1620818     23  1.800                                             
  local pseudopotential read in
  partial core-charges read in
  partial kinetic energy density read in
  atomic valenz-charges read in
  non local Contribution for L=           1  read in
    real space projection operators read in
  non local Contribution for L=           1  read in
    real space projection operators read in
  non local Contribution for L=           2  read in
    real space projection operators read in
  non local Contribution for L=           2  read in
    real space projection operators read in
  non local Contribution for L=           0  read in
    real space projection operators read in
  non local Contribution for L=           0  read in
    real space projection operators read in
    PAW grid and wavefunctions read in
 
   number of l-projection  operators is LMAX  =           6
   number of lm-projection operators is LMMAX =          18
 
 POTCAR:     PAW_PBE Fe_pv 02Aug2007              
   SHA256 =  5d22e414b1f82158bf2c7ecb8b97b28fd0923e48cadc1c3bf74d524558f5dd32 Fe
   COPYR  = (c) Copyright 02Aug2007 Georg Kresse                                
   COPYR  = This file is part of the software VASP. Any use, copying, and all ot
   COPYR  = If you do not have a valid VASP license, you may not use, copy or di
   VRHFIN =Fe:  3pd7s1                                                          
   LEXCH  = PE                                                                  
   EATOM  =  2457.4239 eV,  180.6156 Ry                                         
                                                                                
   TITEL  = PAW_PBE Fe_pv 02Aug2007                                             
   LULTRA =        F    use ultrasoft PP ?                                      
   IUNSCR =        1    unscreen: 0-lin 1-nonlin 2-no                           
   RPACOR =    1.750    partial core radius                                     
   POMASS =   55.847; ZVAL   =   14.000    mass and valenz                      
   RCORE  =    2.200    outmost cutoff radius                                   
   RWIGS  =    2.200; RWIGS  =    1.164    wigner-seitz radius (au A)           
   ENMAX  =  293.238; ENMIN  =  219.928 eV                                      
   ICORE  =        3    local potential                                         
   LCOR   =        T    correct aug charges                                     
   LPAW   =        T    paw PP                                                  
   EAUG   =  578.342                                                            
   DEXC   =    0.000                                                            
   RMAX   =    2.249    core radius for proj-oper                               
   RAUG   =    1.300    factor for augmentation sphere                          
   RDEP   =    2.296    radius for radial grids                                 
   RDEPT  =    1.766    core radius for aug-charge                              
                                                                                
   Atomic configuration                                                         
    8 entries                                                                   
     n  l   j            E        occ.                                          
     1  0  0.50     -6993.8440   2.0000                                         
     2  0  0.50      -814.6047   2.0000                                         
     2  1  1.50      -693.3689   6.0000                                         
     3  0  0.50       -89.4732   2.0000                                         
     3  1  1.50       -55.6373   6.0000                                         
     3  2  2.50        -3.8151   7.0000                                         
     4  0  0.50        -4.2551   1.0000                                         
     4  3  2.50        -1.3606   0.0000                                         
   Description                                                                  
     l       E           TYP  RCUT    TYP  RCUT                                 
     1    -55.6372668     23  2.000                                             
     1     -5.4423304     23  2.000                                             
     2     -3.8151096     23  2.200                                             
     2     -5.1756922     23  2.200                                             
     0     -4.2550951     23  2.200                                             
     0     27.2116520     23  2.200                                             
     3     -1.3605826     23  2.200                                             
  local pseudopotential read in
  partial core-charges read in
  partial kinetic energy density read in
  atomic valenz-charges read in
  non local Contribution for L=           1  read in
    real space projection operators read in
  non local Contribution for L=           1  read in
    real space projection operators read in
  non local Contribution for L=           2  read in
    real space projection operators read in
  non local Contribution for L=           2  read in
    real space projection operators read in
  non local Contribution for L=           0  read in
    real space projection operators read in
  non local Contribution for L=           0  read in
    real space projection operators read in
    PAW grid and wavefunctions read in
 
   number of l-projection  operators is LMAX  =           6
   number of lm-projection operators is LMMAX =          18
 

 ----------------------------------------------------------------------------- 
|                                                                             |
|  ADVICE TO THIS USER RUNNING 'VASP/VAMP'   (HEAR YOUR MASTER'S VOICE ...):  |
|                                                                             |
|      You have a (more or less) 'large supercell' and for larger cells       |
|      it might be more efficient to use real space projection opertators     |
|      So try LREAL= Auto  in the INCAR   file.                               |
|      Mind:          For very  accurate calculation you might also keep the  |
|      reciprocal projection scheme          (i.e. LREAL=.FALSE.)             |
|                                                                             |
 ----------------------------------------------------------------------------- 


 ----------------------------------------------------------------------------- 
|                                                                             |
|  ADVICE TO THIS USER RUNNING 'VASP/VAMP'   (HEAR YOUR MASTER'S VOICE ...):  |
|                                                                             |
|      You enforced a specific xc-type in the INCAR file,                     |
|      a different type was found on the POTCAR file                          |
|          I HOPE YOU KNOW, WHAT YOU ARE  DOING                               |
|                                                                             |
 ----------------------------------------------------------------------------- 

  PAW_PBE S 06Sep2000                   :
 energy of atom  1       EATOM= -276.8230
 kinetic energy error for atom=    0.0007 (will be added to EATOM!!)
   PAW_PBE Cu_pv 06Sep2000              :
 energy of atom  2       EATOM=-4120.1201
 kinetic energy error for atom=    0.0094 (will be added to EATOM!!)
   PAW_PBE Fe_pv 02Aug2007              :
 energy of atom  3       EATOM=-2457.4239
 kinetic energy error for atom=    0.0025 (will be added to EATOM!!)
 
 
 POSCAR: Fe16 Cu16 S32                           
  positions in direct lattice
  No initial velocities read in
 exchange correlation table for  LEXCH =       14
   RHO(1)=    0.500       N(1)  =     2000
   RHO(2)=  100.500       N(2)  =     4000
 


--------------------------------------------------------------------------------------------------------


 ion  position               nearest neighbor table
   1  0.126  0.125  0.122-  37 2.26  41 2.27  61 2.27  49 2.28
   2  0.626  0.125  0.122-  38 2.26  42 2.27  62 2.27  50 2.28
   3  0.126  0.625  0.122-  39 2.26  43 2.27  63 2.27  51 2.28
   4  0.626  0.625  0.122-  40 2.26  44 2.27  64 2.27  52 2.28
   5  0.374  0.375  0.122-  39 2.26  41 2.27  62 2.27  52 2.28
   6  0.874  0.375  0.122-  40 2.26  42 2.27  61 2.27  51 2.28
   7  0.374  0.875  0.122-  37 2.26  43 2.27  64 2.27  50 2.28
   8  0.874  0.875  0.122-  38 2.26  44 2.27  63 2.27  49 2.28
   9  0.125  0.374  0.872-  41 2.26  45 2.27  51 2.27  55 2.28
  10  0.625  0.374  0.872-  42 2.26  46 2.27  52 2.27  56 2.28
  11  0.125  0.874  0.872-  43 2.26  47 2.27  49 2.27  53 2.28
  12  0.625  0.874  0.872-  44 2.26  48 2.27  50 2.27  54 2.28
  13  0.375  0.126  0.872-  41 2.26  46 2.27  50 2.27  53 2.28
  14  0.875  0.126  0.872-  42 2.26  45 2.27  49 2.27  54 2.28
  15  0.375  0.626  0.872-  43 2.26  48 2.27  52 2.27  55 2.28
  16  0.875  0.626  0.872-  44 2.26  47 2.27  51 2.27  56 2.28
  17  0.124  0.125  0.622-  45 2.26  33 2.27  53 2.27  57 2.28
  18  0.624  0.125  0.622-  46 2.26  34 2.27  54 2.27  58 2.28
  19  0.124  0.625  0.622-  47 2.26  35 2.27  55 2.27  59 2.28
  20  0.624  0.625  0.622-  48 2.26  36 2.27  56 2.27  60 2.28
  21  0.376  0.375  0.622-  46 2.26  36 2.27  55 2.27  57 2.28
  22  0.876  0.375  0.622-  45 2.26  35 2.27  56 2.27  58 2.28
  23  0.376  0.875  0.622-  48 2.26  34 2.27  53 2.27  59 2.28
  24  0.876  0.875  0.622-  47 2.26  33 2.27  54 2.27  60 2.28
  25  0.375  0.124  0.372-  34 2.26  37 2.27  57 2.27  62 2.28
  26  0.875  0.124  0.372-  33 2.26  38 2.27  58 2.27  61 2.28
  27  0.375  0.624  0.372-  36 2.26  39 2.27  59 2.27  64 2.28
  28  0.875  0.624  0.372-  35 2.26  40 2.27  60 2.27  63 2.28
  29  0.125  0.376  0.372-  35 2.26  39 2.27  57 2.27  61 2.28
  30  0.625  0.376  0.372-  36 2.26  40 2.27  58 2.27  62 2.28
  31  0.125  0.876  0.372-  33 2.26  37 2.27  59 2.27  63 2.28
  32  0.625  0.876  0.372-  34 2.26  38 2.27  60 2.27  64 2.28
  33  0.000  0.000  0.503-  26 2.26  31 2.26  17 2.27  24 2.27
  34  0.500  0.000  0.503-  25 2.26  32 2.26  18 2.27  23 2.27
  35  0.000  0.500  0.503-  28 2.26  29 2.26  19 2.27  22 2.27
  36  0.500  0.500  0.503-  27 2.26  30 2.26  20 2.27  21 2.27
  37  0.250  0.000  0.253-   1 2.26   7 2.26  25 2.27  31 2.27
  38  0.750  0.000  0.253-   2 2.26   8 2.26  26 2.27  32 2.27
  39  0.250  0.500  0.253-   3 2.26   5 2.26  27 2.27  29 2.27
  40  0.750  0.500  0.253-   4 2.26   6 2.26  28 2.27  30 2.27
  41  0.250  0.250  0.003-   9 2.26  13 2.26   1 2.27   5 2.27
  42  0.750  0.250  0.003-  10 2.26  14 2.26   2 2.27   6 2.27
  43  0.250  0.750  0.003-  11 2.26  15 2.26   3 2.27   7 2.27
  44  0.750  0.750  0.003-  12 2.26  16 2.26   4 2.27   8 2.27
  45  0.000  0.250  0.753-  17 2.26  22 2.26   9 2.27  14 2.27
  46  0.500  0.250  0.753-  18 2.26  21 2.26  10 2.27  13 2.27
  47  0.000  0.750  0.753-  19 2.26  24 2.26  11 2.27  16 2.27
  48  0.500  0.750  0.753-  20 2.26  23 2.26  12 2.27  15 2.27
  49  0.000  0.000  0.004-  11 2.27  14 2.27   1 2.28   8 2.28
  50  0.500  0.000  0.004-  12 2.27  13 2.27   2 2.28   7 2.28
  51  0.000  0.500  0.004-   9 2.27  16 2.27   3 2.28   6 2.28
  52  0.500  0.500  0.004-  10 2.27  15 2.27   4 2.28   5 2.28
  53  0.250  0.000  0.754-  17 2.27  23 2.27  11 2.28  13 2.28
  54  0.750  0.000  0.754-  18 2.27  24 2.27  12 2.28  14 2.28
  55  0.250  0.500  0.754-  19 2.27  21 2.27   9 2.28  15 2.28
  56  0.750  0.500  0.754-  20 2.27  22 2.27  10 2.28  16 2.28
  57  0.250  0.250  0.504-  25 2.27  29 2.27  17 2.28  21 2.28
  58  0.750  0.250  0.504-  26 2.27  30 2.27  18 2.28  22 2.28
  59  0.250  0.750  0.504-  27 2.27  31 2.27  19 2.28  23 2.28
  60  0.750  0.750  0.504-  28 2.27  32 2.27  20 2.28  24 2.28
  61  0.000  0.250  0.254-   1 2.27   6 2.27  26 2.28  29 2.28
  62  0.500  0.250  0.254-   2 2.27   5 2.27  25 2.28  30 2.28
  63  0.000  0.750  0.254-   3 2.27   8 2.27  28 2.28  31 2.28
  64  0.500  0.750  0.254-   4 2.27   7 2.27  27 2.28  32 2.28
 
  LATTYP: Found a base centered orthorhombic cell.
 ALAT       =    14.3847878010
 B/A-ratio  =     1.0648764435
 C/A-ratio  =     0.7248791671
  
  Lattice vectors:
  
 A1 = (  10.5015290000,   0.3299480000,   0.0000000000)
 A2 = (  -0.3299480000, -10.5015290000,   0.0000000000)
 A3 = (   0.0000000000,   0.0000000000, -10.4272330000)


Analysis of symmetry for initial positions (statically):
=====================================================================
 Subroutine PRICEL returns following result:
 
  LATTYP: Found a face centered orthorhombic cell.
 ALAT       =     7.1923939005
 B/A-ratio  =     1.0648764435
 C/A-ratio  =     1.4497583342
  
  Lattice vectors:
  
 A1 = (  -2.7078692500,  -2.7078692500,   5.2136165000)
 A2 = (  -2.5428952500,   2.5428952500,   5.2136165000)
 A3 = (  -5.2507645000,  -0.1649740000,  -0.0000000000)
 
   8 primitive cells build up your supercell.
 

 Routine SETGRP: Setting up the symmetry group for a 
 base centered orthorhombic supercell.


 Subroutine GETGRP returns: Found  4 space group operations
 (whereof  2 operations were pure point group operations)
 out of a pool of  8 trial point group operations.


The static configuration has the point symmetry C_2 .
 The point group associated with its full space group is C_2v.


Analysis of symmetry for dynamics (positions and initial velocities):
=====================================================================
 Subroutine PRICEL returns following result:
 
  LATTYP: Found a face centered orthorhombic cell.
 ALAT       =     7.1923939005
 B/A-ratio  =     1.0648764435
 C/A-ratio  =     1.4497583342
  
  Lattice vectors:
  
 A1 = (  -2.7078692500,  -2.7078692500,   5.2136165000)
 A2 = (  -2.5428952500,   2.5428952500,   5.2136165000)
 A3 = (  -5.2507645000,  -0.1649740000,  -0.0000000000)
 
   8 primitive cells build up your supercell.
 

 Routine SETGRP: Setting up the symmetry group for a 
 base centered orthorhombic supercell.


 Subroutine GETGRP returns: Found  4 space group operations
 (whereof  2 operations were pure point group operations)
 out of a pool of  8 trial point group operations.


The dynamic configuration has the point symmetry C_2 .
 The point group associated with its full space group is C_2v.


Analysis of structural, dynamic, and magnetic symmetry:
=====================================================================
 Subroutine PRICEL returns following result:
 
  LATTYP: Found a face centered orthorhombic cell.
 ALAT       =     7.1923939005
 B/A-ratio  =     1.0648764435
 C/A-ratio  =     1.4497583342
  
  Lattice vectors:
  
 A1 = (  -2.7078692500,  -2.7078692500,   5.2136165000)
 A2 = (  -2.5428952500,   2.5428952500,   5.2136165000)
 A3 = (  -5.2507645000,  -0.1649740000,  -0.0000000000)
 
   8 primitive cells build up your supercell.
 

 Routine SETGRP: Setting up the symmetry group for a 
 base centered orthorhombic supercell.


 Subroutine GETGRP returns: Found  4 space group operations
 (whereof  2 operations were pure point group operations)
 out of a pool of  8 trial point group operations.


The magnetic configuration has the point symmetry C_2 .
 The point group associated with its full space group is C_2v.


 Subroutine INISYM returns: Found  4 space group operations
 (whereof  2 operations are pure point group operations),
 and found     8 'primitive' translations

 
 
 KPOINTS: Automatic mesh                          

Automatic generation of k-mesh.
Space group operators:
 irot       det(A)        alpha          n_x          n_y          n_z        tau_x        tau_y        tau_z
    1     1.000000     0.000001     1.000000     0.000000     0.000000     0.000000     0.000000     0.000000
    2     1.000000   180.000000     0.000000     0.000000     1.000000     0.000000     0.000000     0.000000
    3    -1.000000   180.000000     0.707107     0.707107     0.000000    -0.750000     0.000000     0.750000
    4    -1.000000   180.000000     0.707107    -0.707107     0.000000    -0.750000     0.000000     0.750000
 
 Subroutine IBZKPT returns following result:
 ===========================================
 
 Found      6 irreducible k-points:
 
 Following reciprocal coordinates:
            Coordinates               Weight
  0.000000  0.000000  0.000000      1.000000
  0.500000  0.000000  0.000000      2.000000
  0.500000  0.500000  0.000000      1.000000
  0.000000  0.000000  0.500000      1.000000
  0.500000  0.000000  0.500000      2.000000
  0.500000  0.500000  0.500000      1.000000
 
 Following cartesian coordinates:
            Coordinates               Weight
  0.000000  0.000000  0.000000      1.000000
  0.047659 -0.001497  0.000000      2.000000
  0.046162  0.046162  0.000000      1.000000
  0.000000  0.000000  0.047951      1.000000
  0.047659 -0.001497  0.047951      2.000000
  0.046162  0.046162  0.047951      1.000000
 
 TETIRR: Found     12 inequivalent tetrahedra from       48
 
 Subroutine IBZKPT_HF returns following result:
 ==============================================
 
 Found      8 k-points in 1st BZ
 the following      8 k-points will be used (e.g. in the exchange kernel)
 Following reciprocal coordinates:   # in IRBZ
  0.000000  0.000000  0.000000    0.12500000   1 t-inv F
  0.500000  0.000000  0.000000    0.12500000   2 t-inv F
  0.500000  0.500000  0.000000    0.12500000   3 t-inv F
  0.000000  0.000000  0.500000    0.12500000   4 t-inv F
  0.500000  0.000000  0.500000    0.12500000   5 t-inv F
  0.500000  0.500000  0.500000    0.12500000   6 t-inv F
 -0.000000 -0.500000  0.000000    0.12500000   2 t-inv F spinflp
 -0.000000 -0.500000  0.500000    0.12500000   5 t-inv F spinflp


--------------------------------------------------------------------------------------------------------




 Dimension of arrays:
   k-points           NKPTS =      6   k-points in BZ     NKDIM =      6   number of bands    NBANDS=    512
   number of dos      NEDOS =    301   number of ions     NIONS =     64
   non local maximal  LDIM  =      6   non local SUM 2l+1 LMDIM =     18
   total plane-waves  NPLWV = 829440
   max r-space proj   IRMAX =      1   max aug-charges    IRDMAX=  22944
   dimension x,y,z NGX =    96 NGY =   96 NGZ =   90
   dimension x,y,z NGXF=   192 NGYF=  192 NGZF=  180
   support grid    NGXF=   192 NGYF=  192 NGZF=  180
   ions per type =              32  16  16
   NGX,Y,Z   is equivalent  to a cutoff of  15.19, 15.19, 14.35 a.u.
   NGXF,Y,Z  is equivalent  to a cutoff of  30.38, 30.38, 28.70 a.u.

 SYSTEM =  CuFeS2                                  
 POSCAR =  Fe16 Cu16 S32                           

 Startparameter for this run:
   NWRITE =      2    write-flag & timer
   PREC   = accura    normal or accurate (medium, high low for compatibility)
   ISTART =      0    job   : 0-new  1-cont  2-samecut
   ICHARG =      1    charge: 1-file 2-atom 10-const
   ISPIN  =      2    spin polarized calculation?
   LNONCOLLINEAR =      F non collinear calculations
   LSORBIT =      F    spin-orbit coupling
   INIWAV =      1    electr: 0-lowe 1-rand  2-diag
   LASPH  =      F    aspherical Exc in radial PAW
   METAGGA=      F    non-selfconsistent MetaGGA calc.

 Electronic Relaxation 1
   ENCUT  =  700.0 eV  51.45 Ry    7.17 a.u.  22.67 22.67 22.49*2*pi/ulx,y,z
   ENINI  =  700.0     initial cutoff
   ENAUG  =  758.2 eV  augmentation charge cutoff
   NELM   =    500;   NELMIN=  2; NELMDL=  0     # of ELM steps 
   EDIFF  = 0.1E-07   stopping-criterion for ELM
   LREAL  =      F    real-space projection
   NLSPLINE    = F    spline interpolate recip. space projectors
   LCOMPAT=      F    compatible to vasp.4.4
   GGA_COMPAT  = T    GGA compatible to vasp.4.4-vasp.4.6
   LMAXPAW     = -100 max onsite density
   LMAXMIX     =    4 max onsite mixed and CHGCAR
   VOSKOWN=      0    Vosko Wilk Nusair interpolation
   ROPT   =    0.00000   0.00000   0.00000
 Ionic relaxation
   EDIFFG = -.1E-04   stopping-criterion for IOM
   NSW    =      0    number of steps for IOM
   NBLOCK =      1;   KBLOCK =      1    inner block; outer block 
   IBRION =     -1    ionic relax: 0-MD 1-quasi-New 2-CG
   NFREE  =      0    steps in history (QN), initial steepest desc. (CG)
   ISIF   =      2    stress and relaxation
   IWAVPR =     10    prediction:  0-non 1-charg 2-wave 3-comb
   ISYM   =      2    0-nonsym 1-usesym 2-fastsym
   LCORR  =      T    Harris-Foulkes like correction to forces

   POTIM  = 0.5000    time-step for ionic-motion
   TEIN   =    0.0    initial temperature
   TEBEG  =    0.0;   TEEND  =   0.0 temperature during run
   SMASS  =  -3.00    Nose mass-parameter (am)
   estimated Nose-frequenzy (Omega)   =  0.10E-29 period in steps =****** mass=  -0.252E-26a.u.
   SCALEE = 1.0000    scale energy and forces
   NPACO  =    256;   APACO  = 16.0  distance and # of slots for P.C.
   PSTRESS=    0.0 pullay stress

  Mass of Ions in am
   POMASS =  32.07 63.55 55.85
  Ionic Valenz
   ZVAL   =   6.00 17.00 14.00
  Atomic Wigner-Seitz radii
   RWIGS  =  -1.00 -1.00 -1.00
  virtual crystal weights 
   VCA    =   1.00  1.00  1.00
   NELECT =     688.0000    total number of electrons
   NUPDOWN=      -1.0000    fix difference up-down

 DOS related values:
   EMIN   =  10.00;   EMAX   =-10.00  energy-range for DOS
   EFERMI =   0.00
   ISMEAR =    -5;   SIGMA  =   0.03  broadening in eV -4-tet -1-fermi 0-gaus

 Electronic relaxation 2 (details)
   IALGO  =     38    algorithm
   LDIAG  =      T    sub-space diagonalisation (order eigenvalues)
   LSUBROT=      F    optimize rotation matrix (better conditioning)
   TURBO    =      0    0=normal 1=particle mesh
   IRESTART =      0    0=no restart 2=restart with 2 vectors
   NREBOOT  =      0    no. of reboots
   NMIN     =      0    reboot dimension
   EREF     =   0.00    reference energy to select bands
   IMIX   =      4    mixing-type and parameters
     AMIX     =   0.40;   BMIX     =  1.00
     AMIX_MAG =   1.60;   BMIX_MAG =  1.00
     AMIN     =   0.10
     WC   =   100.;   INIMIX=   1;  MIXPRE=   1;  MAXMIX= -45

 Intra band minimization:
   WEIMIN = 0.0000     energy-eigenvalue tresh-hold
   EBREAK =  0.49E-11  absolut break condition
   DEPER  =   0.30     relativ break condition  

   TIME   =   0.40     timestep for ELM

  volume/ion in A,a.u.               =      17.95       121.13
  Fermi-wavevector in a.u.,A,eV,Ry     =   1.379926  2.607683 25.908169  1.904197
  Thomas-Fermi vector in A             =   2.504851
 
 Write flags
   LWAVE        =      T    write WAVECAR
   LDOWNSAMPLE  =      F    k-point downsampling of WAVECAR
   LCHARG       =      T    write CHGCAR
   LVTOT        =      F    write LOCPOT, total local potential
   LVHAR        =      F    write LOCPOT, Hartree potential only
   LELF         =      F    write electronic localiz. function (ELF)
   LORBIT       =     11    0 simple, 1 ext, 2 COOP (PROOUT), +10 PAW based schemes


 Dipole corrections
   LMONO  =      F    monopole corrections only (constant potential shift)
   LDIPOL =      F    correct potential (dipole corrections)
   IDIPOL =      0    1-x, 2-y, 3-z, 4-all directions 
   EPSILON=  1.0000000 bulk dielectric constant

 LDA+U is selected, type is set to LDAUTYPE =  2
   angular momentum for each species LDAUL =     2    2    2
   U (eV)           for each species LDAUU =   0.0  0.1  4.7
   J (eV)           for each species LDAUJ =   0.0  0.0  0.0
 Exchange correlation treatment:
   GGA     =    PS    GGA type
   LEXCH   =    14    internal setting for exchange type
   VOSKOWN=      0    Vosko Wilk Nusair interpolation
   LHFCALC =     F    Hartree Fock is set to
   LHFONE  =     F    Hartree Fock one center treatment
   AEXX    =    0.0000 exact exchange contribution

 Linear response parameters
   LEPSILON=     F    determine dielectric tensor
   LRPA    =     F    only Hartree local field effects (RPA)
   LNABLA  =     F    use nabla operator in PAW spheres
   LVEL    =     F    velocity operator in full k-point grid
   LINTERFAST=   F  fast interpolation
   KINTER  =     0    interpolate to denser k-point grid
   CSHIFT  =0.1000    complex shift for real part using Kramers Kronig
   OMEGAMAX=  -1.0    maximum frequency
   DEG_THRESHOLD= 0.2000000E-02 threshold for treating states as degnerate
   RTIME   =   -0.100 relaxation time in fs
  (WPLASMAI=    0.000 imaginary part of plasma frequency in eV, 0.658/RTIME)
   DFIELD  = 0.0000000 0.0000000 0.0000000 field for delta impulse in time
 
 Orbital magnetization related:
   ORBITALMAG=     F  switch on orbital magnetization
   LCHIMAG   =     F  perturbation theory with respect to B field
   DQ        =  0.001000  dq finite difference perturbation B field
   LLRAUG    =     F  two centre corrections for induced B field

 PEAD related settings:
   LPEAD      =     T    switch on PEAD
   IPEAD      =     4    finite difference order for dpsi/dk
   LCALCPOL   =     T    calculate macroscopic polarization
   LCALCEPS   =     F    calculate dielectric tensor
   EFIELD_PEAD=    0.0000    0.0000    0.0000
   SKIP_EDOTP =     F
   LRPA       =     F
   SKIP_SCF   =     F


--------------------------------------------------------------------------------------------------------


 Static calculation
 charge density and potential will be updated during run
 spin polarized calculation
 Variant of blocked Davidson
 Davidson routine will perform the subspace rotation
 perform sub-space diagonalisation
    after iterative eigenvector-optimisation
 modified Broyden-mixing scheme, WC =      100.0
 initial mixing is a Kerker type mixing with AMIX =  0.4000 and BMIX =      1.0000
 Hartree-type preconditioning will be used
 using additional bands          168
 reciprocal scheme for non local part
 use partial core corrections
 calculate Harris-corrections to forces 
   (improved forces if not selfconsistent)
 use gradient corrections 
 use of overlap-Matrix (Vanderbilt PP)
 Fermi weights with tetrahedron method with Bloechl corrections


--------------------------------------------------------------------------------------------------------


  energy-cutoff  :      700.00
  volume of cell :     1148.80
      direct lattice vectors                 reciprocal lattice vectors
    10.501529000  0.329948000  0.000000000     0.095318323 -0.002994811  0.000000000
     0.329948000 10.501529000  0.000000000    -0.002994811  0.095318323  0.000000000
     0.000000000  0.000000000 10.427233000     0.000000000  0.000000000  0.095902719

  length of vectors
    10.506711047 10.506711047 10.427233000     0.095365358  0.095365358  0.095902719


 
 k-points in units of 2pi/SCALE and weight: Automatic mesh                          
   0.00000000  0.00000000  0.00000000       0.125
   0.04765916 -0.00149741  0.00000000       0.250
   0.04616176  0.04616176  0.00000000       0.125
   0.00000000  0.00000000  0.04795136       0.125
   0.04765916 -0.00149741  0.04795136       0.250
   0.04616176  0.04616176  0.04795136       0.125
 
 k-points in reciprocal lattice and weights: Automatic mesh                          
   0.00000000  0.00000000  0.00000000       0.125
   0.50000000  0.00000000  0.00000000       0.250
   0.50000000  0.50000000  0.00000000       0.125
   0.00000000  0.00000000  0.50000000       0.125
   0.50000000  0.00000000  0.50000000       0.250
   0.50000000  0.50000000  0.50000000       0.125
 
 position of ions in fractional coordinates (direct lattice) 
   0.12611100  0.12535300  0.12153800
   0.62611100  0.12535300  0.12153800
   0.12611100  0.62535300  0.12153800
   0.62611100  0.62535300  0.12153800
   0.37388900  0.37464700  0.12153800
   0.87388900  0.37464700  0.12153800
   0.37388900  0.87464700  0.12153800
   0.87388900  0.87464700  0.12153800
   0.12464700  0.37388900  0.87153800
   0.62464700  0.37388900  0.87153800
   0.12464700  0.87388900  0.87153800
   0.62464700  0.87388900  0.87153800
   0.37535300  0.12611100  0.87153800
   0.87535300  0.12611100  0.87153800
   0.37535300  0.62611100  0.87153800
   0.87535300  0.62611100  0.87153800
   0.12388900  0.12464700  0.62153800
   0.62388900  0.12464700  0.62153800
   0.12388900  0.62464700  0.62153800
   0.62388900  0.62464700  0.62153800
   0.37611100  0.37535300  0.62153800
   0.87611100  0.37535300  0.62153800
   0.37611100  0.87535300  0.62153800
   0.87611100  0.87535300  0.62153800
   0.37464700  0.12388900  0.37153800
   0.87464700  0.12388900  0.37153800
   0.37464700  0.62388900  0.37153800
   0.87464700  0.62388900  0.37153800
   0.12535300  0.37611100  0.37153800
   0.62535300  0.37611100  0.37153800
   0.12535300  0.87611100  0.37153800
   0.62535300  0.87611100  0.37153800
   0.00000000  0.00000000  0.50301500
   0.50000000  0.00000000  0.50301500
   0.00000000  0.50000000  0.50301500
   0.50000000  0.50000000  0.50301500
   0.25000000  0.00000000  0.25301500
   0.75000000  0.00000000  0.25301500
   0.25000000  0.50000000  0.25301500
   0.75000000  0.50000000  0.25301500
   0.25000000  0.25000000  0.00301500
   0.75000000  0.25000000  0.00301500
   0.25000000  0.75000000  0.00301500
   0.75000000  0.75000000  0.00301500
   0.00000000  0.25000000  0.75301500
   0.50000000  0.25000000  0.75301500
   0.00000000  0.75000000  0.75301500
   0.50000000  0.75000000  0.75301500
   0.00000000  0.00000000  0.00390900
   0.50000000  0.00000000  0.00390900
   0.00000000  0.50000000  0.00390900
   0.50000000  0.50000000  0.00390900
   0.25000000  0.00000000  0.75390900
   0.75000000  0.00000000  0.75390900
   0.25000000  0.50000000  0.75390900
   0.75000000  0.50000000  0.75390900
   0.25000000  0.25000000  0.50390900
   0.75000000  0.25000000  0.50390900
   0.25000000  0.75000000  0.50390900
   0.75000000  0.75000000  0.50390900
   0.00000000  0.25000000  0.25390900
   0.50000000  0.25000000  0.25390900
   0.00000000  0.75000000  0.25390900
   0.50000000  0.75000000  0.25390900
 
 position of ions in cartesian coordinates  (Angst):
   1.36571830  1.35800824  1.26730504
   6.61648280  1.52298224  1.26730504
   1.53069230  6.60877274  1.26730504
   6.78145680  6.77374674  1.26730504
   4.05002020  4.05773026  1.26730504
   9.30078470  4.22270426  1.26730504
   4.21499420  9.30849476  1.26730504
   9.46575870  9.47346876  1.26730504
   1.43234801  3.96753320  9.08772979
   6.68311251  4.13250720  9.08772979
   1.59732201  9.21829770  9.08772979
   6.84808651  9.38327170  9.08772979
   3.98339049  1.44820530  9.08772979
   9.23415499  1.61317930  9.08772979
   4.14836449  6.69896980  9.08772979
   9.39912899  6.86394380  9.08772979
   1.34215095  1.34986101  6.48092154
   6.59291545  1.51483501  6.48092154
   1.50712495  6.60062551  6.48092154
   6.75788945  6.76559951  6.48092154
   4.07358755  4.06587749  6.48092154
   9.32435205  4.23085149  6.48092154
   4.23856155  9.31664199  6.48092154
   9.48932605  9.48161599  6.48092154
   3.97524326  1.42463795  3.87411329
   9.22600776  1.58961195  3.87411329
   4.14021726  6.67540245  3.87411329
   9.39098176  6.84037645  3.87411329
   1.44049524  3.99110055  3.87411329
   6.69125974  4.15607455  3.87411329
   1.60546924  9.24186505  3.87411329
   6.85623374  9.40683905  3.87411329
   0.00000000  0.00000000  5.24505461
   5.25076450  0.16497400  5.24505461
   0.16497400  5.25076450  5.24505461
   5.41573850  5.41573850  5.24505461
   2.62538225  0.08248700  2.63824636
   7.87614675  0.24746100  2.63824636
   2.79035625  5.33325150  2.63824636
   8.04112075  5.49822550  2.63824636
   2.70786925  2.70786925  0.03143811
   7.95863375  2.87284325  0.03143811
   2.87284325  7.95863375  0.03143811
   8.12360775  8.12360775  0.03143811
   0.08248700  2.62538225  7.85186286
   5.33325150  2.79035625  7.85186286
   0.24746100  7.87614675  7.85186286
   5.49822550  8.04112075  7.85186286
   0.00000000  0.00000000  0.04076005
   5.25076450  0.16497400  0.04076005
   0.16497400  5.25076450  0.04076005
   5.41573850  5.41573850  0.04076005
   2.62538225  0.08248700  7.86118480
   7.87614675  0.24746100  7.86118480
   2.79035625  5.33325150  7.86118480
   8.04112075  5.49822550  7.86118480
   2.70786925  2.70786925  5.25437655
   7.95863375  2.87284325  5.25437655
   2.87284325  7.95863375  5.25437655
   8.12360775  8.12360775  5.25437655
   0.08248700  2.62538225  2.64756830
   5.33325150  2.79035625  2.64756830
   0.24746100  7.87614675  2.64756830
   5.49822550  8.04112075  2.64756830
 


--------------------------------------------------------------------------------------------------------


 k-point  1 :   0.0000 0.0000 0.0000  plane waves:   48319
 k-point  2 :   0.5000 0.0000 0.0000  plane waves:   48350
 k-point  3 :   0.5000 0.5000 0.0000  plane waves:   48338
 k-point  4 :   0.0000 0.0000 0.5000  plane waves:   48316
 k-point  5 :   0.5000 0.0000 0.5000  plane waves:   48288
 k-point  6 :   0.5000 0.5000 0.5000  plane waves:   48220

 maximum and minimum number of plane-waves per node :     48350    48220

 maximum number of plane-waves:     48350
 maximum index in each direction: 
   IXMAX=   22   IYMAX=   22   IZMAX=   22
   IXMIN=  -23   IYMIN=  -23   IZMIN=  -22


 serial   3D FFT for wavefunctions
 parallel 3D FFT for charge:
    minimum data exchange during FFTs selected (reduces bandwidth)


 total amount of memory used by VASP MPI-rank0   300225. kBytes
=======================================================================

   base      :      30000. kBytes
   nonl-proj :     174956. kBytes
   fftplans  :       4588. kBytes
   grid      :      69719. kBytes
   one-center:       1990. kBytes
   wavefun   :      18972. kBytes
 
     INWAV:  cpu time    0.0000: real time    0.0000
 Broyden mixing: mesh for mixing (old mesh)
   NGX = 45   NGY = 45   NGZ = 45
  (NGX  =192   NGY  =192   NGZ  =180)
  gives a total of  91125 points

 initial charge density was supplied:
 charge density of overlapping atoms calculated
 number of electron     688.0000000 magnetization       0.0000000
 keeping initial charge density in first step


--------------------------------------------------------------------------------------------------------


 Maximum index for augmentation-charges          897 (set IRDMAX)


--------------------------------------------------------------------------------------------------------


 First call to EWALD:  gamma=   0.169
 Maximum number of real-space cells 3x 3x 3
 Maximum number of reciprocal cells 3x 3x 3

    FEWALD:  cpu time    0.0022: real time    0.0027


--------------------------------------- Iteration      1(   1)  ---------------------------------------


    POTLOK:  cpu time    0.3266: real time    0.3823
    SETDIJ:  cpu time    0.0140: real time    0.0140
     EDDAV:  cpu time   62.8183: real time   63.3387
 BZINTS: Fermi energy: 16.833582;688.000000 electrons
         Band energy:***********;  BLOECHL correction: -0.009370
       DOS:  cpu time    0.0198: real time    0.0199
    --------------------------------------------
      LOOP:  cpu time   63.1787: real time   63.7549

 eigenvalue-minimisations  : 12288
 total energy-change (2. order) : 0.6203997E+04  (-0.5041876E+05)
 number of electron     688.0000000 magnetization       0.0000000
 augmentation part      688.0000000 magnetization       0.0000000

 Free energy of the ion-electron system (eV)
  ---------------------------------------------------
  alpha Z        PSCENC =      2359.98048599
  Ewald energy   TEWEN  =    -62519.99724125
  -Hartree energ DENC   =    -44286.47349317
  -exchange      EXHF   =         0.00000000
  -V(xc)+E(xc)   XCENC  =      3320.16835987
  PAW double counting   =     94592.23312189   -98164.79192727
  entropy T*S    EENTRO =         0.00000000
  eigenvalues    EBANDS =     -3117.18763717
  atomic energy  EATOM  =    114020.06510763
  Solvation  Ediel_sol  =         0.00000000
  ---------------------------------------------------
  free energy    TOTEN  =      6203.99677650 eV

  energy without entropy =     6203.99677650  energy(sigma->0) =     6203.99677650


--------------------------------------------------------------------------------------------------------




--------------------------------------- Iteration      1(   2)  ---------------------------------------


     EDDAV:  cpu time   75.0621: real time   75.6277
 BZINTS: Fermi energy:  6.760072;688.000000 electrons
         Band energy:***********;  BLOECHL correction:  0.000000
       DOS:  cpu time    0.0032: real time    0.0032
    --------------------------------------------
      LOOP:  cpu time   75.0653: real time   75.6309

 eigenvalue-minimisations  : 13568
 total energy-change (2. order) :-0.6303497E+04  (-0.6172510E+04)
 number of electron     688.0000000 magnetization       0.0000000
 augmentation part      688.0000000 magnetization       0.0000000

 Free energy of the ion-electron system (eV)
  ---------------------------------------------------
  alpha Z        PSCENC =      2359.98048599
  Ewald energy   TEWEN  =    -62519.99724125
  -Hartree energ DENC   =    -44286.47349317
  -exchange      EXHF   =         0.00000000
  -V(xc)+E(xc)   XCENC  =      3320.16835987
  PAW double counting   =     94592.23312189   -98164.79192727
  entropy T*S    EENTRO =         0.00000000
  eigenvalues    EBANDS =     -9420.68443374
  atomic energy  EATOM  =    114020.06510763
  Solvation  Ediel_sol  =         0.00000000
  ---------------------------------------------------
  free energy    TOTEN  =       -99.50002008 eV

  energy without entropy =      -99.50002008  energy(sigma->0) =      -99.50002008


--------------------------------------------------------------------------------------------------------




--------------------------------------- Iteration      1(   3)  ---------------------------------------


     EDDAV:  cpu time  112.3619: real time  113.1528
 BZINTS: Fermi energy:  6.112445;688.000000 electrons
         Band energy:***********;  BLOECHL correction:  0.000000
       DOS:  cpu time    0.0031: real time    0.0032
    --------------------------------------------
      LOOP:  cpu time  112.3650: real time  113.1560

 eigenvalue-minimisations  : 16640
 total energy-change (2. order) :-0.2726015E+03  (-0.2715355E+03)
 number of electron     688.0000000 magnetization       0.0000000
 augmentation part      688.0000000 magnetization       0.0000000

 Free energy of the ion-electron system (eV)
  ---------------------------------------------------
  alpha Z        PSCENC =      2359.98048599
  Ewald energy   TEWEN  =    -62519.99724125
  -Hartree energ DENC   =    -44286.47349317
  -exchange      EXHF   =         0.00000000
  -V(xc)+E(xc)   XCENC  =      3320.16835987
  PAW double counting   =     94592.23312189   -98164.79192727
  entropy T*S    EENTRO =         0.00000000
  eigenvalues    EBANDS =     -9693.28588740
  atomic energy  EATOM  =    114020.06510763
  Solvation  Ediel_sol  =         0.00000000
  ---------------------------------------------------
  free energy    TOTEN  =      -372.10147373 eV

  energy without entropy =     -372.10147373  energy(sigma->0) =     -372.10147373


--------------------------------------------------------------------------------------------------------




--------------------------------------- Iteration      1(   4)  ---------------------------------------


     EDDAV:  cpu time   86.7309: real time   87.3659
 BZINTS: Fermi energy:  6.096391;688.000000 electrons
         Band energy:***********;  BLOECHL correction:  0.000000
       DOS:  cpu time    0.0027: real time    0.0028
    --------------------------------------------
      LOOP:  cpu time   86.7336: real time   87.3687

 eigenvalue-minimisations  : 14336
 total energy-change (2. order) :-0.3909908E+01  (-0.3909591E+01)
 number of electron     688.0000000 magnetization       0.0000000
 augmentation part      688.0000000 magnetization       0.0000000

 Free energy of the ion-electron system (eV)
  ---------------------------------------------------
  alpha Z        PSCENC =      2359.98048599
  Ewald energy   TEWEN  =    -62519.99724125
  -Hartree energ DENC   =    -44286.47349317
  -exchange      EXHF   =         0.00000000
  -V(xc)+E(xc)   XCENC  =      3320.16835987
  PAW double counting   =     94592.23312189   -98164.79192727
  entropy T*S    EENTRO =         0.00000000
  eigenvalues    EBANDS =     -9697.19579522
  atomic energy  EATOM  =    114020.06510763
  Solvation  Ediel_sol  =         0.00000000
  ---------------------------------------------------
  free energy    TOTEN  =      -376.01138156 eV

  energy without entropy =     -376.01138156  energy(sigma->0) =     -376.01138156


--------------------------------------------------------------------------------------------------------




--------------------------------------- Iteration      1(   5)  ---------------------------------------


     EDDAV:  cpu time  120.2578: real time  121.0836
 BZINTS: Fermi energy:  6.050277;688.000000 electrons
         Band energy:***********;  BLOECHL correction:  0.000000
       DOS:  cpu time    0.0027: real time    0.0027
    CHARGE:  cpu time    1.1702: real time    1.1776
    MIXING:  cpu time    0.0044: real time    0.0044
    --------------------------------------------
      LOOP:  cpu time  121.4350: real time  122.2684

 eigenvalue-minimisations  : 16896
 total energy-change (2. order) :-0.1047230E+00  (-0.1047223E+00)
 number of electron     688.0000270 magnetization       0.0000000
 augmentation part      261.0093815 magnetization       0.0000000

 Broyden mixing:
  rms(total) = 0.75053E+01    rms(broyden)= 0.75052E+01
  rms(prec ) = 0.89912E+01
  weight for this iteration     100.00

 Free energy of the ion-electron system (eV)
  ---------------------------------------------------
  alpha Z        PSCENC =      2359.98048599
  Ewald energy   TEWEN  =    -62519.99724125
  -Hartree energ DENC   =    -44286.47349317
  -exchange      EXHF   =         0.00000000
  -V(xc)+E(xc)   XCENC  =      3320.16835987
  PAW double counting   =     94592.23312189   -98164.79192727
  entropy T*S    EENTRO =         0.00000000
  eigenvalues    EBANDS =     -9697.30051821
  atomic energy  EATOM  =    114020.06510763
  Solvation  Ediel_sol  =         0.00000000
  ---------------------------------------------------
  free energy    TOTEN  =      -376.11610455 eV

  energy without entropy =     -376.11610455  energy(sigma->0) =     -376.11610455


--------------------------------------------------------------------------------------------------------




--------------------------------------- Iteration      1(   6)  ---------------------------------------


    POTLOK:  cpu time    0.1185: real time    0.1206
    SETDIJ:  cpu time    0.0127: real time    0.0128
     EDDAV:  cpu time   64.2505: real time   64.7537
 BZINTS: Fermi energy:  4.307528;688.000000 electrons
         Band energy:***********;  BLOECHL correction:  0.000000
       DOS:  cpu time    0.0039: real time    0.0040
    CHARGE:  cpu time    1.1683: real time    1.1754
    MIXING:  cpu time    0.0025: real time    0.0137
    --------------------------------------------
      LOOP:  cpu time   65.5564: real time   66.0801

 eigenvalue-minimisations  : 12288
 total energy-change (2. order) : 0.4150778E+02  (-0.5909104E+02)
 number of electron     688.0000291 magnetization       0.0000000
 augmentation part      296.3531372 magnetization       0.0000000

 Broyden mixing:
  rms(total) = 0.10007E+02    rms(broyden)= 0.10007E+02
  rms(prec ) = 0.10462E+02
  weight for this iteration     100.00

 eigenvalues of (default mixing * dielectric matrix)
  average eigenvalue GAMMA=   0.1686
  0.1686

 Free energy of the ion-electron system (eV)
  ---------------------------------------------------
  alpha Z        PSCENC =      2359.98048599
  Ewald energy   TEWEN  =    -62519.99724125
  -Hartree energ DENC   =    -42328.12350427
  -exchange      EXHF   =         0.00000000
  -V(xc)+E(xc)   XCENC  =      3267.53710478
  PAW double counting   =     96411.41721230   -99770.42429907
  entropy T*S    EENTRO =         0.00000000
  eigenvalues    EBANDS =    -11775.06318691
  atomic energy  EATOM  =    114020.06510763
  Solvation  Ediel_sol  =         0.00000000
  ---------------------------------------------------
  free energy    TOTEN  =      -334.60832081 eV

  energy without entropy =     -334.60832081  energy(sigma->0) =     -334.60832081


--------------------------------------------------------------------------------------------------------




--------------------------------------- Iteration      1(   7)  ---------------------------------------


    POTLOK:  cpu time    0.1178: real time    0.1187
    SETDIJ:  cpu time    0.0126: real time    0.0127
     EDDAV:  cpu time   64.0003: real time   64.5088
 BZINTS: Fermi energy:  4.778391;688.000000 electrons
         Band energy:***********;  BLOECHL correction:  0.000000
       DOS:  cpu time    0.0031: real time    0.0031
    CHARGE:  cpu time    1.1685: real time    1.1754
    MIXING:  cpu time    0.0015: real time    0.0032
    --------------------------------------------
      LOOP:  cpu time   65.3038: real time   65.8219

 eigenvalue-minimisations  : 12288
 total energy-change (2. order) : 0.5169838E+01  (-0.1129192E+02)
 number of electron     688.0000283 magnetization       0.0000000
 augmentation part      286.0412190 magnetization       0.0000000

 Broyden mixing:
  rms(total) = 0.43699E+01    rms(broyden)= 0.43699E+01
  rms(prec ) = 0.44455E+01
  weight for this iteration     100.00

 eigenvalues of (default mixing * dielectric matrix)
  average eigenvalue GAMMA=   0.6164
  0.7655  0.4674

 Free energy of the ion-electron system (eV)
  ---------------------------------------------------
  alpha Z        PSCENC =      2359.98048599
  Ewald energy   TEWEN  =    -62519.99724125
  -Hartree energ DENC   =    -42813.49952027
  -exchange      EXHF   =         0.00000000
  -V(xc)+E(xc)   XCENC  =      3278.98767882
  PAW double counting   =     99830.90639441  -103347.18920482
  entropy T*S    EENTRO =         0.00000000
  eigenvalues    EBANDS =    -11138.69218344
  atomic energy  EATOM  =    114020.06510763
  Solvation  Ediel_sol  =         0.00000000
  ---------------------------------------------------
  free energy    TOTEN  =      -329.43848294 eV

  energy without entropy =     -329.43848294  energy(sigma->0) =     -329.43848294


--------------------------------------------------------------------------------------------------------




--------------------------------------- Iteration      1(   8)  ---------------------------------------


    POTLOK:  cpu time    0.1185: real time    0.1194
    SETDIJ:  cpu time    0.0127: real time    0.0127
     EDDAV:  cpu time   94.9164: real time   95.5928
 BZINTS: Fermi energy:  5.301159;688.000000 electrons
         Band energy:***********;  BLOECHL correction:  0.000000
       DOS:  cpu time    0.0031: real time    0.0031
    CHARGE:  cpu time    1.1662: real time    1.1737
    MIXING:  cpu time    0.0014: real time    0.0014
    --------------------------------------------
      LOOP:  cpu time   96.2184: real time   96.9031

 eigenvalue-minimisations  : 14848
 total energy-change (2. order) :-0.3561817E-02  (-0.3643865E+01)
 number of electron     688.0000280 magnetization       0.0000000
 augmentation part      281.5118458 magnetization       0.0000000

 Broyden mixing:
  rms(total) = 0.32420E+01    rms(broyden)= 0.32419E+01
  rms(prec ) = 0.35129E+01
  weight for this iteration     100.00

 eigenvalues of (default mixing * dielectric matrix)
  average eigenvalue GAMMA=   0.8723
  1.5475  0.6212  0.4483

 Free energy of the ion-electron system (eV)
  ---------------------------------------------------
  alpha Z        PSCENC =      2359.98048599
  Ewald energy   TEWEN  =    -62519.99724125
  -Hartree energ DENC   =    -43071.53624609
  -exchange      EXHF   =         0.00000000
  -V(xc)+E(xc)   XCENC  =      3291.29366787
  PAW double counting   =    105305.26317241  -108920.93422862
  entropy T*S    EENTRO =         0.00000000
  eigenvalues    EBANDS =    -10793.57676268
  atomic energy  EATOM  =    114020.06510763
  Solvation  Ediel_sol  =         0.00000000
  ---------------------------------------------------
  free energy    TOTEN  =      -329.44204475 eV

  energy without entropy =     -329.44204475  energy(sigma->0) =     -329.44204475


--------------------------------------------------------------------------------------------------------




--------------------------------------- Iteration      1(   9)  ---------------------------------------


    POTLOK:  cpu time    0.1192: real time    0.1202
    SETDIJ:  cpu time    0.0127: real time    0.0128
     EDDAV:  cpu time   92.1632: real time   92.8293
 BZINTS: Fermi energy:  4.782694;688.000000 electrons
         Band energy:***********;  BLOECHL correction:  0.000000
       DOS:  cpu time    0.0031: real time    0.0031
    CHARGE:  cpu time    1.4347: real time    1.4429
    MIXING:  cpu time    0.0018: real time    0.0110
    --------------------------------------------
      LOOP:  cpu time   93.7347: real time   94.4193

 eigenvalue-minimisations  : 15104
 total energy-change (2. order) :-0.1803833E+01  (-0.1018555E+02)
 number of electron     688.0000281 magnetization      -0.0000000
 augmentation part      282.1254417 magnetization      -0.0000000

 Broyden mixing:
  rms(total) = 0.23526E+01    rms(broyden)= 0.23525E+01
  rms(prec ) = 0.27997E+01
  weight for this iteration     100.00

 eigenvalues of (default mixing * dielectric matrix)
  average eigenvalue GAMMA=   0.9800
  2.3926  0.5971  0.5971  0.3330

 Free energy of the ion-electron system (eV)
  ---------------------------------------------------
  alpha Z        PSCENC =      2359.98048599
  Ewald energy   TEWEN  =    -62519.99724125
  -Hartree energ DENC   =    -42857.72385161
  -exchange      EXHF   =         0.00000000
  -V(xc)+E(xc)   XCENC  =      3284.05278913
  PAW double counting   =    109729.17353546  -113381.26809863
  entropy T*S    EENTRO =         0.00000000
  eigenvalues    EBANDS =    -10965.52860431
  atomic energy  EATOM  =    114020.06510763
  Solvation  Ediel_sol  =         0.00000000
  ---------------------------------------------------
  free energy    TOTEN  =      -331.24587761 eV

  energy without entropy =     -331.24587761  energy(sigma->0) =     -331.24587761


--------------------------------------------------------------------------------------------------------




--------------------------------------- Iteration      1(  10)  ---------------------------------------


    POTLOK:  cpu time    0.1325: real time    0.1337
    SETDIJ:  cpu time    0.0168: real time    0.0169
     EDDAV:  cpu time  114.0900: real time  114.8780
 BZINTS: Fermi energy:  4.923621;688.000000 electrons
         Band energy:***********;  BLOECHL correction:  0.000000
       DOS:  cpu time    0.0031: real time    0.0031
    CHARGE:  cpu time    1.1683: real time    1.1754
    MIXING:  cpu time    0.0014: real time    0.0014
    --------------------------------------------
      LOOP:  cpu time  115.4121: real time  116.2085

 eigenvalue-minimisations  : 16640
 total energy-change (2. order) : 0.3672410E+01  (-0.2142441E+01)
 number of electron     688.0000280 magnetization       0.0000000
 augmentation part      282.3972027 magnetization       0.0000000

 Broyden mixing:
  rms(total) = 0.27576E+00    rms(broyden)= 0.27571E+00
  rms(prec ) = 0.30347E+00
  weight for this iteration     100.00

 eigenvalues of (default mixing * dielectric matrix)
  average eigenvalue GAMMA=   0.9216
  2.3590  0.7730  0.5760  0.5760  0.3240

 Free energy of the ion-electron system (eV)
  ---------------------------------------------------
  alpha Z        PSCENC =      2359.98048599
  Ewald energy   TEWEN  =    -62519.99724125
  -Hartree energ DENC   =    -42888.03522021
  -exchange      EXHF   =         0.00000000
  -V(xc)+E(xc)   XCENC  =      3287.36539261
  PAW double counting   =    113276.55345666  -116973.93235173
  entropy T*S    EENTRO =         0.00000000
  eigenvalues    EBANDS =    -10889.57309745
  atomic energy  EATOM  =    114020.06510763
  Solvation  Ediel_sol  =         0.00000000
  ---------------------------------------------------
  free energy    TOTEN  =      -327.57346776 eV

  energy without entropy =     -327.57346776  energy(sigma->0) =     -327.57346776


--------------------------------------------------------------------------------------------------------




--------------------------------------- Iteration      1(  11)  ---------------------------------------


    POTLOK:  cpu time    0.1175: real time    0.1201
    SETDIJ:  cpu time    0.0127: real time    0.0128
     EDDAV:  cpu time  103.9371: real time  104.6780
 BZINTS: Fermi energy:  5.010650;688.000000 electrons
         Band energy:***********;  BLOECHL correction:  0.000000
       DOS:  cpu time    0.0027: real time    0.0027
    CHARGE:  cpu time    1.3717: real time    1.3795
    MIXING:  cpu time    0.0016: real time    0.0016
    --------------------------------------------
      LOOP:  cpu time  105.4433: real time  106.1947

 eigenvalue-minimisations  : 16128
 total energy-change (2. order) :-0.1221247E+00  (-0.1248128E+00)
 number of electron     688.0000280 magnetization       0.0000000
 augmentation part      282.3646159 magnetization       0.0000000

 Broyden mixing:
  rms(total) = 0.35440E+00    rms(broyden)= 0.35438E+00
  rms(prec ) = 0.39035E+00
  weight for this iteration     100.00

 eigenvalues of (default mixing * dielectric matrix)
  average eigenvalue GAMMA=   0.9029
  2.2500  0.7317  0.7317  0.7869  0.5788  0.3380

 Free energy of the ion-electron system (eV)
  ---------------------------------------------------
  alpha Z        PSCENC =      2359.98048599
  Ewald energy   TEWEN  =    -62519.99724125
  -Hartree energ DENC   =    -42905.87709623
  -exchange      EXHF   =         0.00000000
  -V(xc)+E(xc)   XCENC  =      3287.09559724
  PAW double counting   =    113065.07834343  -116762.43090562
  entropy T*S    EENTRO =         0.00000000
  eigenvalues    EBANDS =    -10871.60988365
  atomic energy  EATOM  =    114020.06510763
  Solvation  Ediel_sol  =         0.00000000
  ---------------------------------------------------
  free energy    TOTEN  =      -327.69559248 eV

  energy without entropy =     -327.69559248  energy(sigma->0) =     -327.69559248


--------------------------------------------------------------------------------------------------------




--------------------------------------- Iteration      1(  12)  ---------------------------------------


    POTLOK:  cpu time    0.1322: real time    0.1332
    SETDIJ:  cpu time    0.0139: real time    0.0139
     EDDAV:  cpu time  116.5405: real time  117.3387
 BZINTS: Fermi energy:  4.920755;688.000000 electrons
         Band energy:***********;  BLOECHL correction:  0.000000
       DOS:  cpu time    0.0031: real time    0.0031
    CHARGE:  cpu time    1.1696: real time    1.1766
    MIXING:  cpu time    0.0015: real time    0.0015
    --------------------------------------------
      LOOP:  cpu time  117.8609: real time  118.6671

 eigenvalue-minimisations  : 16640
 total energy-change (2. order) : 0.1049515E-01  (-0.4937436E-01)
 number of electron     688.0000280 magnetization       0.0000000
 augmentation part      282.2506745 magnetization       0.0000000

 Broyden mixing:
  rms(total) = 0.13284E+00    rms(broyden)= 0.13284E+00
  rms(prec ) = 0.14814E+00
  weight for this iteration     100.00

 eigenvalues of (default mixing * dielectric matrix)
  average eigenvalue GAMMA=   0.9430
  2.2744  1.0845  1.0845  0.6223  0.6223  0.5754  0.3377

 Free energy of the ion-electron system (eV)
  ---------------------------------------------------
  alpha Z        PSCENC =      2359.98048599
  Ewald energy   TEWEN  =    -62519.99724125
  -Hartree energ DENC   =    -42905.22417121
  -exchange      EXHF   =         0.00000000
  -V(xc)+E(xc)   XCENC  =      3286.60174001
  PAW double counting   =    112673.40960857  -116367.69319958
  entropy T*S    EENTRO =         0.00000000
  eigenvalues    EBANDS =    -10874.82742749
  atomic energy  EATOM  =    114020.06510763
  Solvation  Ediel_sol  =         0.00000000
  ---------------------------------------------------
  free energy    TOTEN  =      -327.68509734 eV

  energy without entropy =     -327.68509734  energy(sigma->0) =     -327.68509734


--------------------------------------------------------------------------------------------------------




--------------------------------------- Iteration      1(  13)  ---------------------------------------


    POTLOK:  cpu time    0.1168: real time    0.1199
    SETDIJ:  cpu time    0.0127: real time    0.0127
     EDDAV:  cpu time   91.0527: real time   91.7060
 BZINTS: Fermi energy:  4.924114;688.000000 electrons
         Band energy:***********;  BLOECHL correction:  0.000000
       DOS:  cpu time    0.0031: real time    0.0031
    CHARGE:  cpu time    1.1696: real time    1.1766
    MIXING:  cpu time    0.0016: real time    0.0016
    --------------------------------------------
      LOOP:  cpu time   92.3564: real time   93.0199

 eigenvalue-minimisations  : 14592
 total energy-change (2. order) :-0.5781865E-02  (-0.4958840E-02)
 number of electron     688.0000280 magnetization       0.0000000
 augmentation part      282.2644958 magnetization       0.0000000

 Broyden mixing:
  rms(total) = 0.90916E-01    rms(broyden)= 0.90915E-01
  rms(prec ) = 0.92992E-01
  weight for this iteration     100.00

 eigenvalues of (default mixing * dielectric matrix)
  average eigenvalue GAMMA=   1.1283
  2.5499  2.5499  0.3378  0.8441  0.8441  0.6623  0.6623  0.5756

 Free energy of the ion-electron system (eV)
  ---------------------------------------------------
  alpha Z        PSCENC =      2359.98048599
  Ewald energy   TEWEN  =    -62519.99724125
  -Hartree energ DENC   =    -42911.06538848
  -exchange      EXHF   =         0.00000000
  -V(xc)+E(xc)   XCENC  =      3286.67331673
  PAW double counting   =    112425.00452057  -116119.16995708
  entropy T*S    EENTRO =         0.00000000
  eigenvalues    EBANDS =    -10869.18172329
  atomic energy  EATOM  =    114020.06510763
  Solvation  Ediel_sol  =         0.00000000
  ---------------------------------------------------
  free energy    TOTEN  =      -327.69087920 eV

  energy without entropy =     -327.69087920  energy(sigma->0) =     -327.69087920


--------------------------------------------------------------------------------------------------------




--------------------------------------- Iteration      1(  14)  ---------------------------------------


    POTLOK:  cpu time    0.1194: real time    0.1205
    SETDIJ:  cpu time    0.0126: real time    0.0127
     EDDAV:  cpu time  119.1395: real time  119.9538
 BZINTS: Fermi energy:  4.927005;688.000000 electrons
         Band energy:***********;  BLOECHL correction:  0.000000
       DOS:  cpu time    0.0031: real time    0.0031
    CHARGE:  cpu time    1.1695: real time    1.1766
    MIXING:  cpu time    0.0017: real time    0.0017
    --------------------------------------------
      LOOP:  cpu time  120.4457: real time  121.2684

 eigenvalue-minimisations  : 16896
 total energy-change (2. order) :-0.1058814E-01  (-0.5750239E-02)
 number of electron     688.0000280 magnetization       0.0000000
 augmentation part      282.2254194 magnetization       0.0000000

 Broyden mixing:
  rms(total) = 0.40966E-01    rms(broyden)= 0.40960E-01
  rms(prec ) = 0.45837E-01
  weight for this iteration     100.00

 eigenvalues of (default mixing * dielectric matrix)
  average eigenvalue GAMMA=   1.0539
  2.3790  2.3790  0.9377  0.9377  0.3377  0.6449  0.6449  0.5660  0.6582

 Free energy of the ion-electron system (eV)
  ---------------------------------------------------
  alpha Z        PSCENC =      2359.98048599
  Ewald energy   TEWEN  =    -62519.99724125
  -Hartree energ DENC   =    -42919.49150526
  -exchange      EXHF   =         0.00000000
  -V(xc)+E(xc)   XCENC  =      3286.48905347
  PAW double counting   =    112145.66798221  -115839.24841547
  entropy T*S    EENTRO =         0.00000000
  eigenvalues    EBANDS =    -10861.16693464
  atomic energy  EATOM  =    114020.06510763
  Solvation  Ediel_sol  =         0.00000000
  ---------------------------------------------------
  free energy    TOTEN  =      -327.70146734 eV

  energy without entropy =     -327.70146734  energy(sigma->0) =     -327.70146734


--------------------------------------------------------------------------------------------------------




--------------------------------------- Iteration      1(  15)  ---------------------------------------


    POTLOK:  cpu time    0.1192: real time    0.1202
    SETDIJ:  cpu time    0.0126: real time    0.0127
     EDDAV:  cpu time   85.6393: real time   86.2592
 BZINTS: Fermi energy:  4.925796;688.000000 electrons
         Band energy:***********;  BLOECHL correction:  0.000000
       DOS:  cpu time    0.0031: real time    0.0031
    CHARGE:  cpu time    1.1688: real time    1.1758
    MIXING:  cpu time    0.0018: real time    0.0018
    --------------------------------------------
      LOOP:  cpu time   86.9448: real time   87.5728

 eigenvalue-minimisations  : 13824
 total energy-change (2. order) : 0.2907795E-03  (-0.5388371E-03)
 number of electron     688.0000280 magnetization       0.0000000
 augmentation part      282.2267580 magnetization       0.0000000

 Broyden mixing:
  rms(total) = 0.17517E-01    rms(broyden)= 0.17516E-01
  rms(prec ) = 0.18302E-01
  weight for this iteration     100.00

 eigenvalues of (default mixing * dielectric matrix)
  average eigenvalue GAMMA=   0.9864
  2.3248  2.3248  0.9407  0.9407  0.3377  0.6339  0.6339  0.6524  0.5374  0.5374

 Free energy of the ion-electron system (eV)
  ---------------------------------------------------
  alpha Z        PSCENC =      2359.98048599
  Ewald energy   TEWEN  =    -62519.99724125
  -Hartree energ DENC   =    -42918.11082646
  -exchange      EXHF   =         0.00000000
  -V(xc)+E(xc)   XCENC  =      3286.46576897
  PAW double counting   =    112236.29605791  -115930.14828875
  entropy T*S    EENTRO =         0.00000000
  eigenvalues    EBANDS =    -10862.25224060
  atomic energy  EATOM  =    114020.06510763
  Solvation  Ediel_sol  =         0.00000000
  ---------------------------------------------------
  free energy    TOTEN  =      -327.70117656 eV

  energy without entropy =     -327.70117656  energy(sigma->0) =     -327.70117656


--------------------------------------------------------------------------------------------------------




--------------------------------------- Iteration      1(  16)  ---------------------------------------


    POTLOK:  cpu time    0.1191: real time    0.1200
    SETDIJ:  cpu time    0.0126: real time    0.0127
     EDDAV:  cpu time  132.1214: real time  133.0086
 BZINTS: Fermi energy:  4.925800;688.000000 electrons
         Band energy:***********;  BLOECHL correction:  0.000000
       DOS:  cpu time    0.0031: real time    0.0031
    CHARGE:  cpu time    1.1666: real time    1.1738
    MIXING:  cpu time    0.0018: real time    0.0024
    --------------------------------------------
      LOOP:  cpu time  133.4247: real time  134.3205

 eigenvalue-minimisations  : 17408
 total energy-change (2. order) :-0.1707971E-03  (-0.4727107E-04)
 number of electron     688.0000280 magnetization       0.0000000
 augmentation part      282.2284887 magnetization       0.0000000

 Broyden mixing:
  rms(total) = 0.12614E-01    rms(broyden)= 0.12614E-01
  rms(prec ) = 0.13139E-01
  weight for this iteration     100.00

 eigenvalues of (default mixing * dielectric matrix)
  average eigenvalue GAMMA=   1.1339
  2.4794  2.1121  2.1121  1.2287  0.3377  0.8317  0.8317  0.6627  0.6627  0.5710
  0.6431

 Free energy of the ion-electron system (eV)
  ---------------------------------------------------
  alpha Z        PSCENC =      2359.98048599
  Ewald energy   TEWEN  =    -62519.99724125
  -Hartree energ DENC   =    -42918.30390682
  -exchange      EXHF   =         0.00000000
  -V(xc)+E(xc)   XCENC  =      3286.48016365
  PAW double counting   =    112246.60649543  -115940.39318256
  entropy T*S    EENTRO =         0.00000000
  eigenvalues    EBANDS =    -10862.13926941
  atomic energy  EATOM  =    114020.06510763
  Solvation  Ediel_sol  =         0.00000000
  ---------------------------------------------------
  free energy    TOTEN  =      -327.70134735 eV

  energy without entropy =     -327.70134735  energy(sigma->0) =     -327.70134735


--------------------------------------------------------------------------------------------------------




--------------------------------------- Iteration      1(  17)  ---------------------------------------


    POTLOK:  cpu time    0.1178: real time    0.1188
    SETDIJ:  cpu time    0.0128: real time    0.0129
     EDDAV:  cpu time   97.8790: real time   98.5630
 BZINTS: Fermi energy:  4.926324;688.000000 electrons
         Band energy:***********;  BLOECHL correction:  0.000000
       DOS:  cpu time    0.0031: real time    0.0031
    CHARGE:  cpu time    1.1678: real time    1.1751
    MIXING:  cpu time    0.0018: real time    0.0018
    --------------------------------------------
      LOOP:  cpu time   99.1824: real time   99.8748

 eigenvalue-minimisations  : 14848
 total energy-change (2. order) :-0.5637611E-03  (-0.2514763E-03)
 number of electron     688.0000280 magnetization       0.0000000
 augmentation part      282.2192153 magnetization       0.0000000

 Broyden mixing:
  rms(total) = 0.85436E-02    rms(broyden)= 0.85426E-02
  rms(prec ) = 0.88948E-02
  weight for this iteration     100.00

 eigenvalues of (default mixing * dielectric matrix)
  average eigenvalue GAMMA=   1.1523
  3.2281  2.1585  1.5492  1.5492  0.9233  0.9233  0.3377  0.6527  0.6527  0.5896
  0.6317  0.6317

 Free energy of the ion-electron system (eV)
  ---------------------------------------------------
  alpha Z        PSCENC =      2359.98048599
  Ewald energy   TEWEN  =    -62519.99724125
  -Hartree energ DENC   =    -42920.02576573
  -exchange      EXHF   =         0.00000000
  -V(xc)+E(xc)   XCENC  =      3286.52568416
  PAW double counting   =    112246.41374433  -115940.03200959
  entropy T*S    EENTRO =         0.00000000
  eigenvalues    EBANDS =    -10860.63191664
  atomic energy  EATOM  =    114020.06510763
  Solvation  Ediel_sol  =         0.00000000
  ---------------------------------------------------
  free energy    TOTEN  =      -327.70191112 eV

  energy without entropy =     -327.70191112  energy(sigma->0) =     -327.70191112


--------------------------------------------------------------------------------------------------------




--------------------------------------- Iteration      1(  18)  ---------------------------------------


    POTLOK:  cpu time    0.1181: real time    0.1195
    SETDIJ:  cpu time    0.0126: real time    0.0127
     EDDAV:  cpu time  102.9439: real time  103.6741
 BZINTS: Fermi energy:  4.925910;688.000000 electrons
         Band energy:***********;  BLOECHL correction:  0.000000
       DOS:  cpu time    0.0031: real time    0.0031
    CHARGE:  cpu time    1.1689: real time    1.1767
    MIXING:  cpu time    0.0018: real time    0.0018
    --------------------------------------------
      LOOP:  cpu time  104.2484: real time  104.9879

 eigenvalue-minimisations  : 14848
 total energy-change (2. order) :-0.6551857E-04  (-0.1973015E-04)
 number of electron     688.0000280 magnetization       0.0000000
 augmentation part      282.2260798 magnetization       0.0000000

 Broyden mixing:
  rms(total) = 0.50587E-02    rms(broyden)= 0.50585E-02
  rms(prec ) = 0.58212E-02
  weight for this iteration     100.00

 eigenvalues of (default mixing * dielectric matrix)
  average eigenvalue GAMMA=   1.1434
  3.4094  2.1373  2.0223  1.0834  1.0834  0.3377  0.7625  0.7625  0.7784  0.6570
  0.6570  0.5867  0.5867

 Free energy of the ion-electron system (eV)
  ---------------------------------------------------
  alpha Z        PSCENC =      2359.98048599
  Ewald energy   TEWEN  =    -62519.99724125
  -Hartree energ DENC   =    -42919.89673521
  -exchange      EXHF   =         0.00000000
  -V(xc)+E(xc)   XCENC  =      3286.53340056
  PAW double counting   =    112250.05125713  -115943.62148660
  entropy T*S    EENTRO =         0.00000000
  eigenvalues    EBANDS =    -10860.81676487
  atomic energy  EATOM  =    114020.06510763
  Solvation  Ediel_sol  =         0.00000000
  ---------------------------------------------------
  free energy    TOTEN  =      -327.70197663 eV

  energy without entropy =     -327.70197663  energy(sigma->0) =     -327.70197663


--------------------------------------------------------------------------------------------------------




--------------------------------------- Iteration      1(  19)  ---------------------------------------


    POTLOK:  cpu time    0.1162: real time    0.1203
    SETDIJ:  cpu time    0.0127: real time    0.0127
     EDDAV:  cpu time  110.6151: real time  111.3756
 BZINTS: Fermi energy:  4.925526;688.000000 electrons
         Band energy:***********;  BLOECHL correction:  0.000000
       DOS:  cpu time    0.0031: real time    0.0031
    CHARGE:  cpu time    1.1663: real time    1.1739
    MIXING:  cpu time    0.0020: real time    0.0020
    --------------------------------------------
      LOOP:  cpu time  111.9155: real time  112.6877

 eigenvalue-minimisations  : 15872
 total energy-change (2. order) :-0.4766087E-05  (-0.5324035E-05)
 number of electron     688.0000280 magnetization      -0.0000000
 augmentation part      282.2266787 magnetization      -0.0000000

 Broyden mixing:
  rms(total) = 0.30273E-02    rms(broyden)= 0.30272E-02
  rms(prec ) = 0.33499E-02
  weight for this iteration     100.00

 eigenvalues of (default mixing * dielectric matrix)
  average eigenvalue GAMMA=   1.1748
  3.4663  2.2663  2.2663  1.1351  1.1351  0.9871  0.9871  0.3377  0.6561  0.6561
[...]
   -.420E+02 0.476E+00 0.194E+02   0.428E+02 -.454E+00 -.196E+02   -.857E+00 -.205E-01 0.186E+00   -.900E-05 0.318E-06 -.405E-06
   -.420E+02 0.476E+00 0.194E+02   0.428E+02 -.454E+00 -.196E+02   -.857E+00 -.205E-01 0.186E+00   -.900E-05 0.318E-06 -.405E-06
   -.420E+02 0.476E+00 0.194E+02   0.428E+02 -.454E+00 -.196E+02   -.857E+00 -.205E-01 0.186E+00   -.900E-05 0.318E-06 -.405E-06
   -.420E+02 0.476E+00 0.194E+02   0.428E+02 -.454E+00 -.196E+02   -.857E+00 -.205E-01 0.186E+00   -.900E-05 0.318E-06 -.405E-06
   0.420E+02 -.476E+00 0.194E+02   -.428E+02 0.454E+00 -.196E+02   0.857E+00 0.205E-01 0.186E+00   0.900E-05 -.318E-06 -.405E-06
   0.420E+02 -.476E+00 0.194E+02   -.428E+02 0.454E+00 -.196E+02   0.857E+00 0.205E-01 0.186E+00   0.900E-05 -.318E-06 -.405E-06
   0.420E+02 -.476E+00 0.194E+02   -.428E+02 0.454E+00 -.196E+02   0.857E+00 0.205E-01 0.186E+00   0.900E-05 -.318E-06 -.405E-06
   0.420E+02 -.476E+00 0.194E+02   -.428E+02 0.454E+00 -.196E+02   0.857E+00 0.205E-01 0.186E+00   0.900E-05 -.318E-06 -.405E-06
   0.476E+00 -.420E+02 0.194E+02   -.454E+00 0.428E+02 -.196E+02   -.205E-01 -.857E+00 0.186E+00   0.318E-06 -.900E-05 -.405E-06
   0.476E+00 -.420E+02 0.194E+02   -.454E+00 0.428E+02 -.196E+02   -.205E-01 -.857E+00 0.186E+00   0.318E-06 -.900E-05 -.405E-06
   0.476E+00 -.420E+02 0.194E+02   -.454E+00 0.428E+02 -.196E+02   -.205E-01 -.857E+00 0.186E+00   0.318E-06 -.900E-05 -.405E-06
   0.476E+00 -.420E+02 0.194E+02   -.454E+00 0.428E+02 -.196E+02   -.205E-01 -.857E+00 0.186E+00   0.318E-06 -.900E-05 -.405E-06
   -.476E+00 0.420E+02 0.194E+02   0.454E+00 -.428E+02 -.196E+02   0.205E-01 0.857E+00 0.186E+00   -.318E-06 0.900E-05 -.405E-06
   -.476E+00 0.420E+02 0.194E+02   0.454E+00 -.428E+02 -.196E+02   0.205E-01 0.857E+00 0.186E+00   -.318E-06 0.900E-05 -.405E-06
   -.476E+00 0.420E+02 0.194E+02   0.454E+00 -.428E+02 -.196E+02   0.205E-01 0.857E+00 0.186E+00   -.318E-06 0.900E-05 -.405E-06
   -.476E+00 0.420E+02 0.194E+02   0.454E+00 -.428E+02 -.196E+02   0.205E-01 0.857E+00 0.186E+00   -.318E-06 0.900E-05 -.405E-06
   -.880E-07 0.406E-07 -.228E+02   -.551E-13 -.711E-14 0.218E+02   -.646E-26 -.905E-25 0.923E+00   0.149E-12 -.112E-12 0.186E-04
   -.880E-07 0.406E-07 -.228E+02   -.266E-13 -.568E-13 0.218E+02   0.926E-25 0.598E-25 0.923E+00   -.381E-12 0.903E-13 0.186E-04
   -.880E-07 0.406E-07 -.228E+02   -.266E-13 -.995E-13 0.218E+02   0.955E-25 0.186E-24 0.923E+00   0.704E-13 0.182E-12 0.186E-04
   -.880E-07 0.406E-07 -.228E+02   -.551E-13 -.568E-13 0.218E+02   -.273E-25 0.452E-25 0.923E+00   -.431E-12 0.396E-13 0.186E-04
   0.406E-07 -.880E-07 -.228E+02   0.142E-12 0.000E+00 0.218E+02   0.600E-25 0.452E-25 0.923E+00   -.294E-12 -.158E-12 0.186E-04
   0.406E-07 -.880E-07 -.228E+02   0.142E-12 0.000E+00 0.218E+02   -.197E-25 -.679E-25 0.923E+00   -.398E-12 -.204E-12 0.186E-04
   0.406E-07 -.880E-07 -.228E+02   0.142E-12 0.284E-13 0.218E+02   -.196E-25 -.727E-25 0.923E+00   -.225E-12 -.919E-13 0.186E-04
   0.406E-07 -.880E-07 -.228E+02   0.142E-12 0.284E-13 0.218E+02   -.834E-25 0.323E-25 0.923E+00   -.476E-12 0.726E-13 0.186E-04
   -.880E-07 0.406E-07 -.228E+02   0.568E-13 0.808E-13 0.218E+02   -.695E-25 0.129E-25 0.923E+00   -.115E-12 0.583E-13 0.186E-04
   -.880E-07 0.406E-07 -.228E+02   0.114E-12 0.666E-13 0.218E+02   0.106E-24 0.759E-25 0.923E+00   -.317E-12 0.403E-13 0.186E-04
   -.880E-07 0.406E-07 -.228E+02   0.853E-13 0.119E-12 0.218E+02   0.862E-25 0.582E-25 0.923E+00   -.267E-12 0.105E-12 0.186E-04
   -.880E-07 0.406E-07 -.228E+02   0.853E-13 0.124E-13 0.218E+02   -.364E-26 -.905E-25 0.923E+00   -.195E-12 0.820E-13 0.186E-04
   0.406E-07 -.880E-07 -.228E+02   0.285E-12 0.149E-12 0.218E+02   0.451E-25 -.129E-24 0.923E+00   0.101E-12 -.130E-12 0.186E-04
   0.406E-07 -.880E-07 -.228E+02   0.288E-12 0.149E-12 0.218E+02   -.721E-25 0.953E-25 0.923E+00   -.619E-12 -.970E-13 0.186E-04
   0.406E-07 -.880E-07 -.228E+02   0.193E-12 0.180E-12 0.218E+02   0.141E-24 0.258E-25 0.923E+00   -.193E-13 -.263E-13 0.186E-04
   0.406E-07 -.880E-07 -.228E+02   0.252E-12 0.180E-12 0.218E+02   -.727E-25 -.646E-25 0.923E+00   -.507E-12 -.190E-12 0.186E-04
   0.261E-07 -.547E-07 -.185E+02   -.862E-13 -.782E-13 0.174E+02   0.440E-25 0.000E+00 0.109E+01   0.247E-12 -.102E-12 0.969E-05
   0.261E-07 -.547E-07 -.185E+02   -.577E-13 -.711E-13 0.174E+02   0.182E-25 -.194E-25 0.109E+01   -.361E-12 0.724E-13 0.969E-05
   0.261E-07 -.547E-07 -.185E+02   -.104E-12 -.391E-13 0.174E+02   0.492E-26 0.242E-26 0.109E+01   0.231E-12 0.611E-13 0.969E-05
   0.261E-07 -.547E-07 -.185E+02   -.613E-13 -.426E-13 0.174E+02   -.416E-25 -.129E-25 0.109E+01   -.322E-12 0.179E-13 0.969E-05
   -.547E-07 0.261E-07 -.185E+02   -.213E-12 -.107E-13 0.174E+02   -.767E-26 -.646E-26 0.109E+01   -.484E-13 0.165E-12 0.969E-05
   -.547E-07 0.261E-07 -.185E+02   -.146E-12 -.178E-13 0.174E+02   0.428E-25 -.129E-25 0.109E+01   0.124E-12 0.651E-13 0.969E-05
   -.547E-07 0.261E-07 -.185E+02   -.185E-12 0.213E-13 0.174E+02   -.285E-25 0.000E+00 0.109E+01   0.233E-13 0.108E-12 0.969E-05
   -.547E-07 0.261E-07 -.185E+02   -.178E-12 0.213E-13 0.174E+02   0.278E-25 0.226E-25 0.109E+01   0.744E-13 0.209E-12 0.969E-05
   0.261E-07 -.547E-07 -.185E+02   -.533E-13 -.995E-13 0.174E+02   -.170E-25 0.258E-25 0.109E+01   -.777E-13 0.602E-15 0.969E-05
   0.261E-07 -.547E-07 -.185E+02   -.107E-13 -.959E-13 0.174E+02   -.113E-25 -.129E-25 0.109E+01   -.123E-12 0.151E-13 0.969E-05
   0.261E-07 -.547E-07 -.185E+02   -.568E-13 -.127E-12 0.174E+02   -.666E-25 0.646E-25 0.109E+01   -.213E-12 -.314E-13 0.969E-05
   0.261E-07 -.547E-07 -.185E+02   -.426E-13 -.127E-12 0.174E+02   0.521E-25 0.517E-25 0.109E+01   -.224E-13 -.313E-14 0.969E-05
   -.547E-07 0.261E-07 -.185E+02   -.191E-12 -.161E-12 0.174E+02   -.124E-24 0.129E-25 0.109E+01   0.358E-12 0.576E-13 0.969E-05
   -.547E-07 0.260E-07 -.185E+02   -.180E-12 -.546E-13 0.174E+02   -.460E-25 -.258E-25 0.109E+01   -.213E-12 0.105E-12 0.969E-05
   -.547E-07 0.261E-07 -.185E+02   -.179E-12 -.743E-13 0.174E+02   -.133E-25 -.129E-25 0.109E+01   0.290E-12 0.178E-12 0.969E-05
   -.547E-07 0.261E-07 -.185E+02   -.153E-12 -.996E-14 0.174E+02   -.757E-26 0.210E-25 0.109E+01   -.145E-12 0.894E-13 0.969E-05
 -----------------------------------------------------------------------------------------------
   -.381E-06 -.380E-06 -.382E+02   -.172E-12 -.362E-12 -.995E-13   -.874E-15 -.144E-14 0.382E+02   -.434E-11 -.119E-11 0.439E-03
 
 
 POSITION                                       TOTAL-FORCE (eV/Angst)
 -----------------------------------------------------------------------------------
      1.36572      1.35801      1.26731         0.002295     -0.000902     -0.005531
      6.61648      1.52298      1.26731         0.002295     -0.000902     -0.005531
      1.53069      6.60877      1.26731         0.002295     -0.000902     -0.005531
      6.78146      6.77375      1.26731         0.002295     -0.000902     -0.005531
      4.05002      4.05773      1.26731        -0.002295      0.000902     -0.005531
      9.30078      4.22270      1.26731        -0.002295      0.000902     -0.005531
      4.21499      9.30849      1.26731        -0.002295      0.000902     -0.005531
      9.46576      9.47347      1.26731        -0.002295      0.000902     -0.005531
      1.43235      3.96753      9.08773         0.000902     -0.002295     -0.005531
      6.68311      4.13251      9.08773         0.000902     -0.002295     -0.005531
      1.59732      9.21830      9.08773         0.000902     -0.002295     -0.005531
      6.84809      9.38327      9.08773         0.000902     -0.002295     -0.005531
      3.98339      1.44821      9.08773        -0.000902      0.002295     -0.005531
      9.23415      1.61318      9.08773        -0.000902      0.002295     -0.005531
      4.14836      6.69897      9.08773        -0.000902      0.002295     -0.005531
      9.39913      6.86394      9.08773        -0.000902      0.002295     -0.005531
      1.34215      1.34986      6.48092        -0.002295      0.000902     -0.005531
      6.59292      1.51484      6.48092        -0.002295      0.000902     -0.005531
      1.50712      6.60063      6.48092        -0.002295      0.000902     -0.005531
      6.75789      6.76560      6.48092        -0.002295      0.000902     -0.005531
      4.07359      4.06588      6.48092         0.002295     -0.000902     -0.005531
      9.32435      4.23085      6.48092         0.002295     -0.000902     -0.005531
      4.23856      9.31664      6.48092         0.002295     -0.000902     -0.005531
      9.48933      9.48162      6.48092         0.002295     -0.000902     -0.005531
      3.97524      1.42464      3.87411         0.000902     -0.002295     -0.005531
      9.22601      1.58961      3.87411         0.000902     -0.002295     -0.005531
      4.14022      6.67540      3.87411         0.000902     -0.002295     -0.005531
      9.39098      6.84038      3.87411         0.000902     -0.002295     -0.005531
      1.44050      3.99110      3.87411        -0.000902      0.002295     -0.005531
      6.69126      4.15607      3.87411        -0.000902      0.002295     -0.005531
      1.60547      9.24187      3.87411        -0.000902      0.002295     -0.005531
      6.85623      9.40684      3.87411        -0.000902      0.002295     -0.005531
      0.00000      0.00000      5.24505         0.000000      0.000000      0.003043
      5.25076      0.16497      5.24505         0.000000      0.000000      0.003043
      0.16497      5.25076      5.24505         0.000000      0.000000      0.003043
      5.41574      5.41574      5.24505         0.000000      0.000000      0.003043
      2.62538      0.08249      2.63825         0.000000      0.000000      0.003043
      7.87615      0.24746      2.63825         0.000000      0.000000      0.003043
      2.79036      5.33325      2.63825         0.000000      0.000000      0.003043
      8.04112      5.49823      2.63825         0.000000      0.000000      0.003043
      2.70787      2.70787      0.03144         0.000000      0.000000      0.003043
      7.95863      2.87284      0.03144         0.000000      0.000000      0.003043
      2.87284      7.95863      0.03144         0.000000      0.000000      0.003043
      8.12361      8.12361      0.03144         0.000000      0.000000      0.003043
      0.08249      2.62538      7.85186         0.000000      0.000000      0.003043
      5.33325      2.79036      7.85186         0.000000      0.000000      0.003043
      0.24746      7.87615      7.85186         0.000000      0.000000      0.003043
      5.49823      8.04112      7.85186         0.000000      0.000000      0.003043
      0.00000      0.00000      0.04076         0.000000      0.000000      0.008020
      5.25076      0.16497      0.04076         0.000000      0.000000      0.008020
      0.16497      5.25076      0.04076         0.000000      0.000000      0.008020
      5.41574      5.41574      0.04076         0.000000      0.000000      0.008020
      2.62538      0.08249      7.86118         0.000000      0.000000      0.008020
      7.87615      0.24746      7.86118         0.000000      0.000000      0.008020
      2.79036      5.33325      7.86118         0.000000      0.000000      0.008020
      8.04112      5.49823      7.86118         0.000000      0.000000      0.008020
      2.70787      2.70787      5.25438         0.000000      0.000000      0.008020
      7.95863      2.87284      5.25438         0.000000      0.000000      0.008020
      2.87284      7.95863      5.25438         0.000000      0.000000      0.008020
      8.12361      8.12361      5.25438         0.000000      0.000000      0.008020
      0.08249      2.62538      2.64757         0.000000      0.000000      0.008020
      5.33325      2.79036      2.64757         0.000000      0.000000      0.008020
      0.24746      7.87615      2.64757         0.000000      0.000000      0.008020
      5.49823      8.04112      2.64757         0.000000      0.000000      0.008020
 -----------------------------------------------------------------------------------
    total drift:                               -0.000000     -0.000000      0.012634


--------------------------------------------------------------------------------------------------------



  FREE ENERGIE OF THE ION-ELECTRON SYSTEM (eV)
  ---------------------------------------------------
  free  energy   TOTEN  =      -327.70198731 eV

  energy  without entropy=     -327.70198731  energy(sigma->0) =     -327.70198731
 


--------------------------------------------------------------------------------------------------------


    POTLOK:  cpu time    0.1284: real time    0.1291


--------------------------------------------------------------------------------------------------------


 writing wavefunctions
     LOOP+:  cpu time 2957.4129: real time 2978.6066
    4ORBIT:  cpu time    0.0000: real time    0.0000
 


 total charge     
 
# of ion       s       p       d       tot
------------------------------------------
    1        1.314   2.409   0.000   3.723
    2        1.314   2.409   0.000   3.723
    3        1.314   2.409   0.000   3.723
    4        1.314   2.409   0.000   3.723
    5        1.314   2.409   0.000   3.723
    6        1.314   2.409   0.000   3.723
    7        1.314   2.409   0.000   3.723
    8        1.314   2.409   0.000   3.723
    9        1.314   2.409   0.000   3.723
   10        1.314   2.409   0.000   3.723
   11        1.314   2.409   0.000   3.723
   12        1.314   2.409   0.000   3.723
   13        1.314   2.409   0.000   3.723
   14        1.314   2.409   0.000   3.723
   15        1.314   2.409   0.000   3.723
   16        1.314   2.409   0.000   3.723
   17        1.314   2.409   0.000   3.723
   18        1.314   2.409   0.000   3.723
   19        1.314   2.409   0.000   3.723
   20        1.314   2.409   0.000   3.723
   21        1.314   2.409   0.000   3.723
   22        1.314   2.409   0.000   3.723
   23        1.314   2.409   0.000   3.723
   24        1.314   2.409   0.000   3.723
   25        1.314   2.409   0.000   3.723
   26        1.314   2.409   0.000   3.723
   27        1.314   2.409   0.000   3.723
   28        1.314   2.409   0.000   3.723
   29        1.314   2.409   0.000   3.723
   30        1.314   2.409   0.000   3.723
   31        1.314   2.409   0.000   3.723
   32        1.314   2.409   0.000   3.723
   33        0.259   6.202   8.916  15.378
   34        0.259   6.202   8.916  15.378
   35        0.259   6.202   8.916  15.378
   36        0.259   6.202   8.916  15.378
   37        0.259   6.202   8.917  15.378
   38        0.259   6.202   8.917  15.378
   39        0.259   6.202   8.917  15.378
   40        0.259   6.202   8.917  15.378
   41        0.259   6.202   8.916  15.378
   42        0.259   6.202   8.916  15.378
   43        0.259   6.202   8.916  15.378
   44        0.259   6.202   8.916  15.378
   45        0.259   6.202   8.917  15.378
   46        0.259   6.202   8.917  15.378
   47        0.259   6.202   8.917  15.378
   48        0.259   6.202   8.917  15.378
   49        0.349   6.350   5.821  12.520
   50        0.349   6.350   5.821  12.520
   51        0.349   6.350   5.821  12.520
   52        0.349   6.350   5.821  12.520
   53        0.349   6.350   5.821  12.520
   54        0.349   6.350   5.821  12.520
   55        0.349   6.350   5.821  12.520
   56        0.349   6.350   5.821  12.520
   57        0.349   6.350   5.821  12.520
   58        0.349   6.350   5.821  12.520
   59        0.349   6.350   5.821  12.520
   60        0.349   6.350   5.821  12.520
   61        0.349   6.350   5.821  12.520
   62        0.349   6.350   5.821  12.520
   63        0.349   6.350   5.821  12.520
   64        0.349   6.350   5.821  12.520
--------------------------------------------------
tot         51.783 277.920 235.797 565.499
 


 magnetization (x)
 
# of ion       s       p       d       tot
------------------------------------------
    1       -0.001  -0.015   0.000  -0.016
    2       -0.001  -0.015   0.000  -0.016
    3       -0.001  -0.015   0.000  -0.016
    4       -0.001  -0.015   0.000  -0.016
    5       -0.001  -0.015   0.000  -0.016
    6       -0.001  -0.015   0.000  -0.016
    7       -0.001  -0.015   0.000  -0.016
    8       -0.001  -0.015   0.000  -0.016
    9        0.001   0.015   0.000   0.016
   10        0.001   0.015   0.000   0.016
   11        0.001   0.015   0.000   0.016
   12        0.001   0.015   0.000   0.016
   13        0.001   0.015   0.000   0.016
   14        0.001   0.015   0.000   0.016
   15        0.001   0.015   0.000   0.016
   16        0.001   0.015   0.000   0.016
   17       -0.001  -0.015   0.000  -0.016
   18       -0.001  -0.015   0.000  -0.016
   19       -0.001  -0.015   0.000  -0.016
   20       -0.001  -0.015   0.000  -0.016
   21       -0.001  -0.015   0.000  -0.016
   22       -0.001  -0.015   0.000  -0.016
   23       -0.001  -0.015   0.000  -0.016
   24       -0.001  -0.015   0.000  -0.016
   25        0.001   0.015   0.000   0.016
   26        0.001   0.015   0.000   0.016
   27        0.001   0.015   0.000   0.016
   28        0.001   0.015   0.000   0.016
   29        0.001   0.015   0.000   0.016
   30        0.001   0.015   0.000   0.016
   31        0.001   0.015   0.000   0.016
   32        0.001   0.015   0.000   0.016
   33        0.000   0.000   0.001   0.001
   34        0.000   0.000   0.001   0.001
   35        0.000   0.000   0.001   0.001
   36        0.000   0.000   0.001   0.001
   37       -0.000  -0.000  -0.001  -0.001
   38       -0.000  -0.000  -0.001  -0.001
   39       -0.000  -0.000  -0.001  -0.001
   40       -0.000  -0.000  -0.001  -0.001
   41        0.000   0.000   0.001   0.001
   42        0.000   0.000   0.001   0.001
   43        0.000   0.000   0.001   0.001
   44        0.000   0.000   0.001   0.001
   45       -0.000  -0.000  -0.001  -0.001
   46       -0.000  -0.000  -0.001  -0.001
   47       -0.000  -0.000  -0.001  -0.001
   48       -0.000  -0.000  -0.001  -0.001
   49        0.020   0.054   3.670   3.743
   50        0.020   0.054   3.670   3.743
   51        0.020   0.054   3.670   3.743
   52        0.020   0.054   3.670   3.743
   53       -0.020  -0.054  -3.669  -3.743
   54       -0.020  -0.054  -3.669  -3.743
   55       -0.020  -0.054  -3.669  -3.743
   56       -0.020  -0.054  -3.669  -3.743
   57        0.020   0.054   3.670   3.743
   58        0.020   0.054   3.670   3.743
   59        0.020   0.054   3.670   3.743
   60        0.020   0.054   3.670   3.743
   61       -0.020  -0.054  -3.669  -3.743
   62       -0.020  -0.054  -3.669  -3.743
   63       -0.020  -0.054  -3.669  -3.743
   64       -0.020  -0.054  -3.669  -3.743
--------------------------------------------------
tot         -0.001   0.002  -0.001  -0.001
 
 BZINTS: Fermi energy:  4.920581;688.000000 electrons
         Band energy:***********;  BLOECHL correction:  0.000000

 total amount of memory used by VASP MPI-rank0   300225. kBytes
=======================================================================

   base      :      30000. kBytes
   nonl-proj :     174956. kBytes
   fftplans  :       4588. kBytes
   grid      :      69719. kBytes
   one-center:       1990. kBytes
   wavefun   :      18972. kBytes
 
  
  
 General timing and accounting informations for this job:
 ========================================================
  
                  Total CPU time used (sec):     3001.412
                            User time (sec):     2991.610
                          System time (sec):        9.802
                         Elapsed time (sec):     3023.782
  
                   Maximum memory used (kb):      676732.
                   Average memory used (kb):           0.
  
                          Minor page faults:       191793
                          Major page faults:         5711
                 Voluntary context switches:         7143
