       N       E                     dE             d eps       ncg     rms          rms(c)
DAV:   1     0.605453698546E+04    0.60545E+04   -0.51616E+05 16384   0.196E+03
DAV:   2    -0.764617415201E+02   -0.61310E+04   -0.60210E+04 17920   0.445E+02
DAV:   3    -0.324567075475E+03   -0.24811E+03   -0.24719E+03 23296   0.972E+01
DAV:   4    -0.327963218403E+03   -0.33961E+01   -0.33960E+01 18432   0.114E+01
DAV:   5    -0.328066308698E+03   -0.10309E+00   -0.10309E+00 23040   0.197E+00    0.185E+00
DAV:   6    -0.328030796634E+03    0.35512E-01   -0.82500E-02 21760   0.829E-01    0.983E-01
DAV:   7    -0.328019716136E+03    0.11080E-01   -0.38951E-02 25344   0.529E-01    0.581E-01
DAV:   8    -0.328019414173E+03    0.30196E-03   -0.30660E-02 22528   0.487E-01    0.495E-01
DAV:   9    -0.328018465248E+03    0.94892E-03   -0.11732E-02 20480   0.305E-01    0.193E-01
DAV:  10    -0.328018559609E+03   -0.94361E-04   -0.47832E-04 19456   0.394E-02    0.115E-01
DAV:  11    -0.328018620277E+03   -0.60668E-04   -0.34178E-04 26112   0.377E-02    0.545E-02
DAV:  12    -0.328018669119E+03   -0.48843E-04   -0.14222E-04 19456   0.161E-02    0.197E-02
DAV:  13    -0.328018676139E+03   -0.70193E-05   -0.21928E-05 22528   0.849E-03    0.126E-02
DAV:  14    -0.328018681412E+03   -0.52739E-05   -0.13339E-05 19968   0.432E-03    0.753E-03
DAV:  15    -0.328018684474E+03   -0.30616E-05   -0.95503E-06 20480   0.274E-03    0.391E-03
DAV:  16    -0.328018685242E+03   -0.76804E-06   -0.20613E-06 20224   0.139E-03    0.281E-03
DAV:  17    -0.328018685540E+03   -0.29773E-06   -0.15100E-06 21504   0.132E-03    0.163E-03
DAV:  18    -0.328018685659E+03   -0.11967E-06   -0.81853E-07 21504   0.101E-03    0.805E-04
DAV:  19    -0.328018685677E+03   -0.17666E-07   -0.37984E-08 19200   0.363E-04    0.515E-04
DAV:  20    -0.328018685675E+03    0.24011E-08   -0.76171E-09 15104   0.136E-04
   1 F= -.32801869E+03 E0= -.32801869E+03  d E =0.000000E+00  mag=     0.0000
