 vasp.5.4.4.18Apr17-6-g9f103f2a35 (build Oct 30 2023 17:30:16) complex          
  
 executed on             LinuxIFC date 2024.06.30  18:48:51
 running on  256 total cores
 distrk:  each k-point on  256 cores,    1 groups
 distr:  one band on NCORES_PER_BAND=   1 cores,  256 groups


--------------------------------------------------------------------------------------------------------


 INCAR:
 POTCAR:    PAW_PBE S 06Sep2000                   
 POTCAR:     PAW_PBE Cu_pv 06Sep2000              
 POTCAR:     PAW_PBE Fe_pv 02Aug2007              

 ----------------------------------------------------------------------------- 
|                                                                             |
|           W    W    AA    RRRRR   N    N  II  N    N   GGGG   !!!           |
|           W    W   A  A   R    R  NN   N  II  NN   N  G    G  !!!           |
|           W    W  A    A  R    R  N N  N  II  N N  N  G       !!!           |
|           W WW W  AAAAAA  RRRRR   N  N N  II  N  N N  G  GGG   !            |
|           WW  WW  A    A  R   R   N   NN  II  N   NN  G    G                |
|           W    W  A    A  R    R  N    N  II  N    N   GGGG   !!!           |
|                                                                             |
|      For optimal performance we recommend to set                            |
|        NCORE= 4 - approx SQRT( number of cores)                             |
|      NCORE specifies how many cores store one orbital (NPAR=cpu/NCORE).     |
|      This setting can  greatly improve the performance of VASP for DFT.     |
|      The default,   NCORE=1            might be grossly inefficient         |
|      on modern multi-core architectures or massively parallel machines.     |
|      Do your own testing !!!!                                               |
|      Unfortunately you need to use the default for GW and RPA calculations. |
|      (for HF NCORE is supported but not extensively tested yet)             |
|                                                                             |
 ----------------------------------------------------------------------------- 

 POTCAR:    PAW_PBE S 06Sep2000                   
   SHA256 =  0fc7481fb0695f01bdc6462160264c5c84044ae9ec85a907d398b887a2bc3132 S/
   COPYR  = (c) Copyright 06Sep2000 Georg Kresse                                
   COPYR  = This file is part of the software VASP. Any use, copying, and all ot
   COPYR  = If you do not have a valid VASP license, you may not use, copy or di
   VRHFIN =S : s2p4                                                             
   LEXCH  = PE                                                                  
   EATOM  =   276.8230 eV,   20.3459 Ry                                         
                                                                                
   TITEL  = PAW_PBE S 06Sep2000                                                 
   LULTRA =        F    use ultrasoft PP ?                                      
   IUNSCR =        1    unscreen: 0-lin 1-nonlin 2-no                           
   RPACOR =    1.500    partial core radius                                     
   POMASS =   32.066; ZVAL   =    6.000    mass and valenz                      
   RCORE  =    1.900    outmost cutoff radius                                   
   RWIGS  =    2.200; RWIGS  =    1.164    wigner-seitz radius (au A)           
   ENMAX  =  258.689; ENMIN  =  194.016 eV                                      
   ICORE  =        2    local potential                                         
   LCOR   =        T    correct aug charges                                     
   LPAW   =        T    paw PP                                                  
   EAUG   =  335.092                                                            
   DEXC   =    0.000                                                            
   RMAX   =    1.942    core radius for proj-oper                               
   RAUG   =    1.300    factor for augmentation sphere                          
   RDEP   =    1.954    radius for radial grids                                 
   RDEPT  =    1.744    core radius for aug-charge                              
                                                                                
   Atomic configuration                                                         
    6 entries                                                                   
     n  l   j            E        occ.                                          
     1  0  0.50     -2405.8406   2.0000                                         
     2  0  0.50      -211.7007   2.0000                                         
     2  1  1.50      -156.4958   6.0000                                         
     3  0  0.50       -17.2562   2.0000                                         
     3  1  0.50        -7.0085   4.0000                                         
     3  2  1.50        -6.8029   0.0000                                         
   Description                                                                  
     l       E           TYP  RCUT    TYP  RCUT                                 
     0    -17.2561641     23  1.900                                             
     0    -15.8743224     23  1.900                                             
     1     -7.0085400     23  1.900                                             
     1     -2.7779785     23  1.900                                             
     2     -6.8029130     23  1.900                                             
  local pseudopotential read in
  partial core-charges read in
  partial kinetic energy density read in
  atomic valenz-charges read in
  non local Contribution for L=           0  read in
    real space projection operators read in
  non local Contribution for L=           0  read in
    real space projection operators read in
  non local Contribution for L=           1  read in
    real space projection operators read in
  non local Contribution for L=           1  read in
    real space projection operators read in
    PAW grid and wavefunctions read in
 
   number of l-projection  operators is LMAX  =           4
   number of lm-projection operators is LMMAX =           8
 
 POTCAR:     PAW_PBE Cu_pv 06Sep2000              
   SHA256 =  cb7b504e2ea725fe1f25c85a9ac77d4012ce94cd394135b722c4e25ec297f1cb Cu
   COPYR  = (c) Copyright 06Sep2000 Georg Kresse                                
   COPYR  = This file is part of the software VASP. Any use, copying, and all ot
   COPYR  = If you do not have a valid VASP license, you may not use, copy or di
   VRHFIN =Cu: d10 p1                                                           
   LEXCH  = PE                                                                  
   EATOM  =  4120.1201 eV,  302.8203 Ry                                         
                                                                                
   TITEL  = PAW_PBE Cu_pv 06Sep2000                                             
   LULTRA =        F    use ultrasoft PP ?                                      
   IUNSCR =        1    unscreen: 0-lin 1-nonlin 2-no                           
   RPACOR =    1.500    partial core radius                                     
   POMASS =   63.546; ZVAL   =   17.000    mass and valenz                      
   RCORE  =    2.000    outmost cutoff radius                                   
   RWIGS  =    2.000; RWIGS  =    1.058    wigner-seitz radius (au A)           
   ENMAX  =  368.648; ENMIN  =  276.486 eV                                      
   RCLOC  =    1.304    cutoff for local pot                                    
   LCOR   =        T    correct aug charges                                     
   LPAW   =        T    paw PP                                                  
   EAUG   =  758.233                                                            
   DEXC   =    0.000                                                            
   RMAX   =    2.046    core radius for proj-oper                               
   RAUG   =    1.300    factor for augmentation sphere                          
   RDEP   =    2.025    radius for radial grids                                 
   RDEPT  =    1.558    core radius for aug-charge                              
                                                                                
   Atomic configuration                                                         
    8 entries                                                                   
     n  l   j            E        occ.                                          
     1  0  0.50     -8850.2467   2.0000                                         
     2  0  0.50     -1062.3498   2.0000                                         
     2  1  1.50      -916.8226   6.0000                                         
     3  0  0.50      -114.6929   2.0000                                         
     3  1  1.50       -72.1325   6.0000                                         
     3  2  2.50        -5.0394  10.0000                                         
     4  0  0.50        -4.6097   1.0000                                         
     4  3  2.50        -1.3606   0.0000                                         
   Description                                                                  
     l       E           TYP  RCUT    TYP  RCUT                                 
     1    -72.1324777     23  1.700                                             
     1     -1.3605826     23  1.700                                             
     2     -5.0393776     23  2.000                                             
     2     -6.3999602     23  2.000                                             
     0     -4.6097062     23  1.800                                             
     0     14.1620818     23  1.800                                             
  local pseudopotential read in
  partial core-charges read in
  partial kinetic energy density read in
  atomic valenz-charges read in
  non local Contribution for L=           1  read in
    real space projection operators read in
  non local Contribution for L=           1  read in
    real space projection operators read in
  non local Contribution for L=           2  read in
    real space projection operators read in
  non local Contribution for L=           2  read in
    real space projection operators read in
  non local Contribution for L=           0  read in
    real space projection operators read in
  non local Contribution for L=           0  read in
    real space projection operators read in
    PAW grid and wavefunctions read in
 
   number of l-projection  operators is LMAX  =           6
   number of lm-projection operators is LMMAX =          18
 
 POTCAR:     PAW_PBE Fe_pv 02Aug2007              
   SHA256 =  5d22e414b1f82158bf2c7ecb8b97b28fd0923e48cadc1c3bf74d524558f5dd32 Fe
   COPYR  = (c) Copyright 02Aug2007 Georg Kresse                                
   COPYR  = This file is part of the software VASP. Any use, copying, and all ot
   COPYR  = If you do not have a valid VASP license, you may not use, copy or di
   VRHFIN =Fe:  3pd7s1                                                          
   LEXCH  = PE                                                                  
   EATOM  =  2457.4239 eV,  180.6156 Ry                                         
                                                                                
   TITEL  = PAW_PBE Fe_pv 02Aug2007                                             
   LULTRA =        F    use ultrasoft PP ?                                      
   IUNSCR =        1    unscreen: 0-lin 1-nonlin 2-no                           
   RPACOR =    1.750    partial core radius                                     
   POMASS =   55.847; ZVAL   =   14.000    mass and valenz                      
   RCORE  =    2.200    outmost cutoff radius                                   
   RWIGS  =    2.200; RWIGS  =    1.164    wigner-seitz radius (au A)           
   ENMAX  =  293.238; ENMIN  =  219.928 eV                                      
   ICORE  =        3    local potential                                         
   LCOR   =        T    correct aug charges                                     
   LPAW   =        T    paw PP                                                  
   EAUG   =  578.342                                                            
   DEXC   =    0.000                                                            
   RMAX   =    2.249    core radius for proj-oper                               
   RAUG   =    1.300    factor for augmentation sphere                          
   RDEP   =    2.296    radius for radial grids                                 
   RDEPT  =    1.766    core radius for aug-charge                              
                                                                                
   Atomic configuration                                                         
    8 entries                                                                   
     n  l   j            E        occ.                                          
     1  0  0.50     -6993.8440   2.0000                                         
     2  0  0.50      -814.6047   2.0000                                         
     2  1  1.50      -693.3689   6.0000                                         
     3  0  0.50       -89.4732   2.0000                                         
     3  1  1.50       -55.6373   6.0000                                         
     3  2  2.50        -3.8151   7.0000                                         
     4  0  0.50        -4.2551   1.0000                                         
     4  3  2.50        -1.3606   0.0000                                         
   Description                                                                  
     l       E           TYP  RCUT    TYP  RCUT                                 
     1    -55.6372668     23  2.000                                             
     1     -5.4423304     23  2.000                                             
     2     -3.8151096     23  2.200                                             
     2     -5.1756922     23  2.200                                             
     0     -4.2550951     23  2.200                                             
     0     27.2116520     23  2.200                                             
     3     -1.3605826     23  2.200                                             
  local pseudopotential read in
  partial core-charges read in
  partial kinetic energy density read in
  atomic valenz-charges read in
  non local Contribution for L=           1  read in
    real space projection operators read in
  non local Contribution for L=           1  read in
    real space projection operators read in
  non local Contribution for L=           2  read in
    real space projection operators read in
  non local Contribution for L=           2  read in
    real space projection operators read in
  non local Contribution for L=           0  read in
    real space projection operators read in
  non local Contribution for L=           0  read in
    real space projection operators read in
    PAW grid and wavefunctions read in
 
   number of l-projection  operators is LMAX  =           6
   number of lm-projection operators is LMMAX =          18
 

 ----------------------------------------------------------------------------- 
|                                                                             |
|  ADVICE TO THIS USER RUNNING 'VASP/VAMP'   (HEAR YOUR MASTER'S VOICE ...):  |
|                                                                             |
|      You have a (more or less) 'large supercell' and for larger cells       |
|      it might be more efficient to use real space projection opertators     |
|      So try LREAL= Auto  in the INCAR   file.                               |
|      Mind:          For very  accurate calculation you might also keep the  |
|      reciprocal projection scheme          (i.e. LREAL=.FALSE.)             |
|                                                                             |
 ----------------------------------------------------------------------------- 


 ----------------------------------------------------------------------------- 
|                                                                             |
|  ADVICE TO THIS USER RUNNING 'VASP/VAMP'   (HEAR YOUR MASTER'S VOICE ...):  |
|                                                                             |
|      You enforced a specific xc-type in the INCAR file,                     |
|      a different type was found on the POTCAR file                          |
|          I HOPE YOU KNOW, WHAT YOU ARE  DOING                               |
|                                                                             |
 ----------------------------------------------------------------------------- 

  PAW_PBE S 06Sep2000                   :
 energy of atom  1       EATOM= -276.8230
 kinetic energy error for atom=    0.0007 (will be added to EATOM!!)
   PAW_PBE Cu_pv 06Sep2000              :
 energy of atom  2       EATOM=-4120.1201
 kinetic energy error for atom=    0.0094 (will be added to EATOM!!)
   PAW_PBE Fe_pv 02Aug2007              :
 energy of atom  3       EATOM=-2457.4239
 kinetic energy error for atom=    0.0025 (will be added to EATOM!!)
 
 
 POSCAR: Fe16 Cu16 S32                           
  positions in direct lattice
  No initial velocities read in
 exchange correlation table for  LEXCH =       14
   RHO(1)=    0.500       N(1)  =     2000
   RHO(2)=  100.500       N(2)  =     4000
 


--------------------------------------------------------------------------------------------------------


 ion  position               nearest neighbor table
   1  0.126  0.123  0.125-  41 2.26  37 2.27  61 2.27  49 2.28
   2  0.626  0.123  0.125-  42 2.26  38 2.27  62 2.27  50 2.28
   3  0.126  0.623  0.125-  43 2.26  39 2.27  63 2.27  51 2.28
   4  0.626  0.623  0.125-  44 2.26  40 2.27  64 2.27  52 2.28
   5  0.374  0.373  0.125-  39 2.26  41 2.27  52 2.27  62 2.28
   6  0.874  0.373  0.125-  40 2.26  42 2.27  51 2.27  61 2.28
   7  0.374  0.873  0.125-  37 2.26  43 2.27  50 2.27  64 2.28
   8  0.874  0.873  0.125-  38 2.26  44 2.27  49 2.27  63 2.28
   9  0.125  0.372  0.875-  41 2.26  45 2.26  51 2.27  55 2.27
  10  0.625  0.372  0.875-  42 2.26  46 2.26  52 2.27  56 2.27
  11  0.125  0.872  0.875-  43 2.26  47 2.26  49 2.27  53 2.27
  12  0.625  0.872  0.875-  44 2.26  48 2.26  50 2.27  54 2.27
  13  0.375  0.125  0.875-  41 2.26  46 2.26  50 2.28  53 2.28
  14  0.875  0.125  0.875-  42 2.26  45 2.26  49 2.28  54 2.28
  15  0.375  0.625  0.875-  43 2.26  48 2.26  52 2.28  55 2.28
  16  0.875  0.625  0.875-  44 2.26  47 2.26  51 2.28  56 2.28
  17  0.124  0.123  0.625-  45 2.26  33 2.27  57 2.27  53 2.28
  18  0.624  0.123  0.625-  46 2.26  34 2.27  58 2.27  54 2.28
  19  0.124  0.623  0.625-  47 2.26  35 2.27  59 2.27  55 2.28
  20  0.624  0.623  0.625-  48 2.26  36 2.27  60 2.27  56 2.28
  21  0.376  0.373  0.625-  36 2.26  46 2.27  55 2.27  57 2.28
  22  0.876  0.373  0.625-  35 2.26  45 2.27  56 2.27  58 2.28
  23  0.376  0.873  0.625-  34 2.26  48 2.27  53 2.27  59 2.28
  24  0.876  0.873  0.625-  33 2.26  47 2.27  54 2.27  60 2.28
  25  0.375  0.122  0.375-  34 2.26  37 2.26  57 2.27  62 2.27
  26  0.875  0.122  0.375-  33 2.26  38 2.26  58 2.27  61 2.27
  27  0.375  0.622  0.375-  36 2.26  39 2.26  59 2.27  64 2.27
  28  0.875  0.622  0.375-  35 2.26  40 2.26  60 2.27  63 2.27
  29  0.125  0.375  0.375-  35 2.26  39 2.26  57 2.28  61 2.28
  30  0.625  0.375  0.375-  36 2.26  40 2.26  58 2.28  62 2.28
  31  0.125  0.875  0.375-  33 2.26  37 2.26  59 2.28  63 2.28
  32  0.625  0.875  0.375-  34 2.26  38 2.26  60 2.28  64 2.28
  33  0.999  0.002  0.500-  24 2.26  31 2.26  26 2.26  17 2.27
  34  0.499  0.002  0.500-  23 2.26  32 2.26  25 2.26  18 2.27
  35  0.999  0.502  0.500-  22 2.26  29 2.26  28 2.26  19 2.27
  36  0.499  0.502  0.500-  21 2.26  30 2.26  27 2.26  20 2.27
  37  0.251  0.002  0.250-   7 2.26  31 2.26  25 2.26   1 2.27
  38  0.751  0.002  0.250-   8 2.26  32 2.26  26 2.26   2 2.27
  39  0.251  0.502  0.250-   5 2.26  29 2.26  27 2.26   3 2.27
  40  0.751  0.502  0.250-   6 2.26  30 2.26  28 2.26   4 2.27
  41  0.249  0.252  0.000-   1 2.26  13 2.26   9 2.26   5 2.27
  42  0.749  0.252  0.000-   2 2.26  14 2.26  10 2.26   6 2.27
  43  0.249  0.752  0.000-   3 2.26  15 2.26  11 2.26   7 2.27
  44  0.749  0.752  0.000-   4 2.26  16 2.26  12 2.26   8 2.27
  45  0.001  0.252  0.750-  17 2.26  14 2.26   9 2.26  22 2.27
  46  0.501  0.252  0.750-  18 2.26  13 2.26  10 2.26  21 2.27
  47  0.001  0.752  0.750-  19 2.26  16 2.26  11 2.26  24 2.27
  48  0.501  0.752  0.750-  20 2.26  15 2.26  12 2.26  23 2.27
  49  1.000  0.002  0.000-   8 2.27  11 2.27  14 2.28   1 2.28
  50  0.500  0.002  0.000-   7 2.27  12 2.27  13 2.28   2 2.28
  51  1.000  0.502  0.000-   6 2.27   9 2.27  16 2.28   3 2.28
  52  0.500  0.502  0.000-   5 2.27  10 2.27  15 2.28   4 2.28
  53  0.250  0.002  0.750-  23 2.27  11 2.27  13 2.28  17 2.28
  54  0.750  0.002  0.750-  24 2.27  12 2.27  14 2.28  18 2.28
  55  0.250  0.502  0.750-  21 2.27   9 2.27  15 2.28  19 2.28
  56  0.750  0.502  0.750-  22 2.27  10 2.27  16 2.28  20 2.28
  57  0.250  0.252  0.500-  17 2.27  25 2.27  29 2.28  21 2.28
  58  0.750  0.252  0.500-  18 2.27  26 2.27  30 2.28  22 2.28
  59  0.250  0.752  0.500-  19 2.27  27 2.27  31 2.28  23 2.28
  60  0.750  0.752  0.500-  20 2.27  28 2.27  32 2.28  24 2.28
  61  0.000  0.252  0.250-   1 2.27  26 2.27  29 2.28   6 2.28
  62  0.500  0.252  0.250-   2 2.27  25 2.27  30 2.28   5 2.28
  63  0.000  0.752  0.250-   3 2.27  28 2.27  31 2.28   8 2.28
  64  0.500  0.752  0.250-   4 2.27  27 2.27  32 2.28   7 2.28
 
  LATTYP: Found a simple monoclinic cell.
 ALAT       =    15.0280439794
 B/A-ratio  =     0.6998210156
 C/A-ratio  =     1.5716770402
 COS(beta)  =    -0.9512970299
  
  Lattice vectors:
  
 A1 = ( -10.6780140000,   0.0000000000, -10.5745980000)
 A2 = (   0.0000000000, -10.5169410000,   0.0000000000)
 A3 = (  10.8415390000,   0.0000000000,  20.9840210000)


Analysis of symmetry for initial positions (statically):
=====================================================================
 Subroutine PRICEL returns following result:
 
  LATTYP: Found a base centered monoclinic cell.
 ALAT       =    11.5147518336
 B/A-ratio  =     0.4566724994
 C/A-ratio  =     0.9041191252
 COS(beta)  =    -0.8093726581
  
  Lattice vectors:
  
 A1 = (  -2.5468597500,  -2.6292352500,   5.1634177500)
 A2 = (  -2.5468597500,   2.6292352500,   5.1634177500)
 A3 = (  -0.1635250000,   0.0000000000, -10.4094230000)
 
   8 primitive cells build up your supercell.
 

 Routine SETGRP: Setting up the symmetry group for a 
 simple monoclinic supercell.


 Subroutine GETGRP returns: Found  2 space group operations
 (whereof  1 operations were pure point group operations)
 out of a pool of  4 trial point group operations.


The static configuration has the point symmetry C_1 .
 The point group associated with its full space group is C_2 .


Analysis of symmetry for dynamics (positions and initial velocities):
=====================================================================
 Subroutine PRICEL returns following result:
 
  LATTYP: Found a base centered monoclinic cell.
 ALAT       =    11.5147518336
 B/A-ratio  =     0.4566724994
 C/A-ratio  =     0.9041191252
 COS(beta)  =    -0.8093726581
  
  Lattice vectors:
  
 A1 = (  -2.5468597500,  -2.6292352500,   5.1634177500)
 A2 = (  -2.5468597500,   2.6292352500,   5.1634177500)
 A3 = (  -0.1635250000,   0.0000000000, -10.4094230000)
 
   8 primitive cells build up your supercell.
 

 Routine SETGRP: Setting up the symmetry group for a 
 simple monoclinic supercell.


 Subroutine GETGRP returns: Found  2 space group operations
 (whereof  1 operations were pure point group operations)
 out of a pool of  4 trial point group operations.


The dynamic configuration has the point symmetry C_1 .
 The point group associated with its full space group is C_2 .


Analysis of structural, dynamic, and magnetic symmetry:
=====================================================================
 Subroutine PRICEL returns following result:
 
  LATTYP: Found a base centered monoclinic cell.
 ALAT       =    11.5147518336
 B/A-ratio  =     0.4566724994
 C/A-ratio  =     0.9041191252
 COS(beta)  =    -0.8093726581
  
  Lattice vectors:
  
 A1 = (  -2.5468597500,  -2.6292352500,   5.1634177500)
 A2 = (  -2.5468597500,   2.6292352500,   5.1634177500)
 A3 = (  -0.1635250000,   0.0000000000, -10.4094230000)
 
   8 primitive cells build up your supercell.
 

 Routine SETGRP: Setting up the symmetry group for a 
 simple monoclinic supercell.


 Subroutine GETGRP returns: Found  2 space group operations
 (whereof  1 operations were pure point group operations)
 out of a pool of  4 trial point group operations.


The magnetic configuration has the point symmetry C_1 .
 The point group associated with its full space group is C_2 .


 Subroutine INISYM returns: Found  2 space group operations
 (whereof  1 operations are pure point group operations),
 and found     8 'primitive' translations

 
 
 KPOINTS: Automatic mesh                          

Automatic generation of k-mesh.
Space group operators:
 irot       det(A)        alpha          n_x          n_y          n_z        tau_x        tau_y        tau_z
    1     1.000000     0.000000     1.000000     0.000000     0.000000     0.000000     0.000000     0.000000
    2     1.000000   180.000000     0.000000     1.000000     0.000000    -0.250000     0.000000    -0.250000
 
 Subroutine IBZKPT returns following result:
 ===========================================
 
 Found      8 irreducible k-points:
 
 Following reciprocal coordinates:
            Coordinates               Weight
  0.000000  0.000000  0.000000      1.000000
  0.500000  0.000000  0.000000      1.000000
  0.000000  0.500000  0.000000      1.000000
  0.500000  0.500000  0.000000      1.000000
 -0.000000  0.000000  0.500000      1.000000
  0.500000  0.000000  0.500000      1.000000
 -0.000000  0.500000  0.500000      1.000000
  0.500000  0.500000  0.500000      1.000000
 
 Following cartesian coordinates:
            Coordinates               Weight
  0.000000  0.000000  0.000000      1.000000
  0.047565  0.000000 -0.000747      1.000000
  0.000000  0.047542  0.000000      1.000000
  0.047565  0.047542 -0.000747      1.000000
 -0.000755  0.000000  0.048045      1.000000
  0.046810  0.000000  0.047298      1.000000
 -0.000755  0.047542  0.048045      1.000000
  0.046810  0.047542  0.047298      1.000000
 
 TETIRR: Found     24 inequivalent tetrahedra from       48
 
 Subroutine IBZKPT_HF returns following result:
 ==============================================
 
 Found      8 k-points in 1st BZ
 the following      8 k-points will be used (e.g. in the exchange kernel)
 Following reciprocal coordinates:   # in IRBZ
  0.000000  0.000000  0.000000    0.12500000   1 t-inv F
  0.500000  0.000000  0.000000    0.12500000   2 t-inv F
  0.000000  0.500000  0.000000    0.12500000   3 t-inv F
  0.500000  0.500000  0.000000    0.12500000   4 t-inv F
 -0.000000  0.000000  0.500000    0.12500000   5 t-inv F
  0.500000  0.000000  0.500000    0.12500000   6 t-inv F
 -0.000000  0.500000  0.500000    0.12500000   7 t-inv F
  0.500000  0.500000  0.500000    0.12500000   8 t-inv F


--------------------------------------------------------------------------------------------------------




 Dimension of arrays:
   k-points           NKPTS =      8   k-points in BZ     NKDIM =      8   number of bands    NBANDS=    512
   number of dos      NEDOS =    301   number of ions     NIONS =     64
   non local maximal  LDIM  =      6   non local SUM 2l+1 LMDIM =     18
   total plane-waves  NPLWV = 829440
   max r-space proj   IRMAX =      1   max aug-charges    IRDMAX=  22904
   dimension x,y,z NGX =    96 NGY =   96 NGZ =   90
   dimension x,y,z NGXF=   192 NGYF=  192 NGZF=  180
   support grid    NGXF=   192 NGYF=  192 NGZF=  180
   ions per type =              32  16  16
   NGX,Y,Z   is equivalent  to a cutoff of  15.18, 15.18, 14.37 a.u.
   NGXF,Y,Z  is equivalent  to a cutoff of  30.35, 30.35, 28.74 a.u.

 SYSTEM =  CuFeS2                                  
 POSCAR =  Fe16 Cu16 S32                           

 Startparameter for this run:
   NWRITE =      2    write-flag & timer
   PREC   = accura    normal or accurate (medium, high low for compatibility)
   ISTART =      0    job   : 0-new  1-cont  2-samecut
   ICHARG =      1    charge: 1-file 2-atom 10-const
   ISPIN  =      2    spin polarized calculation?
   LNONCOLLINEAR =      F non collinear calculations
   LSORBIT =      F    spin-orbit coupling
   INIWAV =      1    electr: 0-lowe 1-rand  2-diag
   LASPH  =      F    aspherical Exc in radial PAW
   METAGGA=      F    non-selfconsistent MetaGGA calc.

 Electronic Relaxation 1
   ENCUT  =  700.0 eV  51.45 Ry    7.17 a.u.  22.69 22.69 22.46*2*pi/ulx,y,z
   ENINI  =  700.0     initial cutoff
   ENAUG  =  758.2 eV  augmentation charge cutoff
   NELM   =    500;   NELMIN=  2; NELMDL= -5     # of ELM steps 
   EDIFF  = 0.1E-07   stopping-criterion for ELM
   LREAL  =      F    real-space projection
   NLSPLINE    = F    spline interpolate recip. space projectors
   LCOMPAT=      F    compatible to vasp.4.4
   GGA_COMPAT  = T    GGA compatible to vasp.4.4-vasp.4.6
   LMAXPAW     = -100 max onsite density
   LMAXMIX     =    4 max onsite mixed and CHGCAR
   VOSKOWN=      0    Vosko Wilk Nusair interpolation
   ROPT   =    0.00000   0.00000   0.00000
 Ionic relaxation
   EDIFFG = -.1E-04   stopping-criterion for IOM
   NSW    =      0    number of steps for IOM
   NBLOCK =      1;   KBLOCK =      1    inner block; outer block 
   IBRION =     -1    ionic relax: 0-MD 1-quasi-New 2-CG
   NFREE  =      0    steps in history (QN), initial steepest desc. (CG)
   ISIF   =      2    stress and relaxation
   IWAVPR =     10    prediction:  0-non 1-charg 2-wave 3-comb
   ISYM   =      2    0-nonsym 1-usesym 2-fastsym
   LCORR  =      T    Harris-Foulkes like correction to forces

   POTIM  = 0.5000    time-step for ionic-motion
   TEIN   =    0.0    initial temperature
   TEBEG  =    0.0;   TEEND  =   0.0 temperature during run
   SMASS  =  -3.00    Nose mass-parameter (am)
   estimated Nose-frequenzy (Omega)   =  0.10E-29 period in steps =****** mass=  -0.253E-26a.u.
   SCALEE = 1.0000    scale energy and forces
   NPACO  =    256;   APACO  = 16.0  distance and # of slots for P.C.
   PSTRESS=    0.0 pullay stress

  Mass of Ions in am
   POMASS =  32.07 63.55 55.85
  Ionic Valenz
   ZVAL   =   6.00 17.00 14.00
  Atomic Wigner-Seitz radii
   RWIGS  =  -1.00 -1.00 -1.00
  virtual crystal weights 
   VCA    =   1.00  1.00  1.00
   NELECT =     688.0000    total number of electrons
   NUPDOWN=      -1.0000    fix difference up-down

 DOS related values:
   EMIN   =  10.00;   EMAX   =-10.00  energy-range for DOS
   EFERMI =   0.00
   ISMEAR =    -5;   SIGMA  =   0.03  broadening in eV -4-tet -1-fermi 0-gaus

 Electronic relaxation 2 (details)
   IALGO  =     38    algorithm
   LDIAG  =      T    sub-space diagonalisation (order eigenvalues)
   LSUBROT=      F    optimize rotation matrix (better conditioning)
   TURBO    =      0    0=normal 1=particle mesh
   IRESTART =      0    0=no restart 2=restart with 2 vectors
   NREBOOT  =      0    no. of reboots
   NMIN     =      0    reboot dimension
   EREF     =   0.00    reference energy to select bands
   IMIX   =      4    mixing-type and parameters
     AMIX     =   0.40;   BMIX     =  1.00
     AMIX_MAG =   1.60;   BMIX_MAG =  1.00
     AMIN     =   0.10
     WC   =   100.;   INIMIX=   1;  MIXPRE=   1;  MAXMIX= -45

 Intra band minimization:
   WEIMIN = 0.0000     energy-eigenvalue tresh-hold
   EBREAK =  0.49E-11  absolut break condition
   DEPER  =   0.30     relativ break condition  

   TIME   =   0.40     timestep for ELM

  volume/ion in A,a.u.               =      17.98       121.34
  Fermi-wavevector in a.u.,A,eV,Ry     =   1.379130  2.606178 25.878284  1.902000
  Thomas-Fermi vector in A             =   2.504128
 
 Write flags
   LWAVE        =      T    write WAVECAR
   LDOWNSAMPLE  =      F    k-point downsampling of WAVECAR
   LCHARG       =      T    write CHGCAR
   LVTOT        =      F    write LOCPOT, total local potential
   LVHAR        =      F    write LOCPOT, Hartree potential only
   LELF         =      F    write electronic localiz. function (ELF)
   LORBIT       =     11    0 simple, 1 ext, 2 COOP (PROOUT), +10 PAW based schemes


 Dipole corrections
   LMONO  =      F    monopole corrections only (constant potential shift)
   LDIPOL =      F    correct potential (dipole corrections)
   IDIPOL =      0    1-x, 2-y, 3-z, 4-all directions 
   EPSILON=  1.0000000 bulk dielectric constant

 LDA+U is selected, type is set to LDAUTYPE =  2
   angular momentum for each species LDAUL =     2    2    2
   U (eV)           for each species LDAUU =   0.0  0.1  4.7
   J (eV)           for each species LDAUJ =   0.0  0.0  0.0
 Exchange correlation treatment:
   GGA     =    PS    GGA type
   LEXCH   =    14    internal setting for exchange type
   VOSKOWN=      0    Vosko Wilk Nusair interpolation
   LHFCALC =     F    Hartree Fock is set to
   LHFONE  =     F    Hartree Fock one center treatment
   AEXX    =    0.0000 exact exchange contribution

 Linear response parameters
   LEPSILON=     F    determine dielectric tensor
   LRPA    =     F    only Hartree local field effects (RPA)
   LNABLA  =     F    use nabla operator in PAW spheres
   LVEL    =     F    velocity operator in full k-point grid
   LINTERFAST=   F  fast interpolation
   KINTER  =     0    interpolate to denser k-point grid
   CSHIFT  =0.1000    complex shift for real part using Kramers Kronig
   OMEGAMAX=  -1.0    maximum frequency
   DEG_THRESHOLD= 0.2000000E-02 threshold for treating states as degnerate
   RTIME   =   -0.100 relaxation time in fs
  (WPLASMAI=    0.000 imaginary part of plasma frequency in eV, 0.658/RTIME)
   DFIELD  = 0.0000000 0.0000000 0.0000000 field for delta impulse in time
 
 Orbital magnetization related:
   ORBITALMAG=     F  switch on orbital magnetization
   LCHIMAG   =     F  perturbation theory with respect to B field
   DQ        =  0.001000  dq finite difference perturbation B field
   LLRAUG    =     F  two centre corrections for induced B field

 PEAD related settings:
   LPEAD      =     T    switch on PEAD
   IPEAD      =     4    finite difference order for dpsi/dk
   LCALCPOL   =     T    calculate macroscopic polarization
   LCALCEPS   =     F    calculate dielectric tensor
   EFIELD_PEAD=    0.0000    0.0000    0.0000
   SKIP_EDOTP =     F
   LRPA       =     F
   SKIP_SCF   =     F


--------------------------------------------------------------------------------------------------------


 Static calculation
 charge density and potential will be updated during run
 spin polarized calculation
 Variant of blocked Davidson
 Davidson routine will perform the subspace rotation
 perform sub-space diagonalisation
    after iterative eigenvector-optimisation
 modified Broyden-mixing scheme, WC =      100.0
 initial mixing is a Kerker type mixing with AMIX =  0.4000 and BMIX =      1.0000
 Hartree-type preconditioning will be used
 using additional bands          168
 reciprocal scheme for non local part
 use partial core corrections
 calculate Harris-corrections to forces 
   (improved forces if not selfconsistent)
 use gradient corrections 
 use of overlap-Matrix (Vanderbilt PP)
 Fermi weights with tetrahedron method with Bloechl corrections


--------------------------------------------------------------------------------------------------------


  energy-cutoff  :      700.00
  volume of cell :     1150.79
      direct lattice vectors                 reciprocal lattice vectors
    10.514489000  0.000000000  0.165175000     0.095130333  0.000000000 -0.001494433
     0.000000000 10.516941000  0.000000000     0.000000000  0.095084683  0.000000000
     0.163525000  0.000000000 10.409423000    -0.001509512  0.000000000  0.096090518

  length of vectors
    10.515786310 10.516941000 10.410707354     0.095142071  0.095084683  0.096102373


 
 k-points in units of 2pi/SCALE and weight: Automatic mesh                          
   0.00000000  0.00000000  0.00000000       0.125
   0.04756517  0.00000000 -0.00074722       0.125
   0.00000000  0.04754234  0.00000000       0.125
   0.04756517  0.04754234 -0.00074722       0.125
  -0.00075476  0.00000000  0.04804526       0.125
   0.04681041  0.00000000  0.04729804       0.125
  -0.00075476  0.04754234  0.04804526       0.125
   0.04681041  0.04754234  0.04729804       0.125
 
 k-points in reciprocal lattice and weights: Automatic mesh                          
   0.00000000  0.00000000  0.00000000       0.125
   0.50000000  0.00000000  0.00000000       0.125
   0.00000000  0.50000000  0.00000000       0.125
   0.50000000  0.50000000  0.00000000       0.125
  -0.00000000  0.00000000  0.50000000       0.125
   0.50000000  0.00000000  0.50000000       0.125
  -0.00000000  0.50000000  0.50000000       0.125
   0.50000000  0.50000000  0.50000000       0.125
 
 position of ions in fractional coordinates (direct lattice) 
   0.12617600  0.12305200  0.12531500
   0.62617600  0.12305200  0.12531500
   0.12617600  0.62305200  0.12531500
   0.62617600  0.62305200  0.12531500
   0.37382400  0.37305200  0.12468500
   0.87382400  0.37305200  0.12468500
   0.37382400  0.87305200  0.12468500
   0.87382400  0.87305200  0.12468500
   0.12500000  0.37247300  0.87500000
   0.62500000  0.37247300  0.87500000
   0.12500000  0.87247300  0.87500000
   0.62500000  0.87247300  0.87500000
   0.37500000  0.12472800  0.87500000
   0.87500000  0.12472800  0.87500000
   0.37500000  0.62472800  0.87500000
   0.87500000  0.62472800  0.87500000
   0.12382400  0.12305200  0.62468500
   0.62382400  0.12305200  0.62468500
   0.12382400  0.62305200  0.62468500
   0.62382400  0.62305200  0.62468500
   0.37617600  0.37305200  0.62531500
   0.87617600  0.37305200  0.62531500
   0.37617600  0.87305200  0.62531500
   0.87617600  0.87305200  0.62531500
   0.37500000  0.12247300  0.37500000
   0.87500000  0.12247300  0.37500000
   0.37500000  0.62247300  0.37500000
   0.87500000  0.62247300  0.37500000
   0.12500000  0.37472800  0.37500000
   0.62500000  0.37472800  0.37500000
   0.12500000  0.87472800  0.37500000
   0.62500000  0.87472800  0.37500000
   0.99943200  0.00170900  0.50000300
   0.49943200  0.00170900  0.50000300
   0.99943200  0.50170900  0.50000300
   0.49943200  0.50170900  0.50000300
   0.25056800  0.00170900  0.24999700
   0.75056800  0.00170900  0.24999700
   0.25056800  0.50170900  0.24999700
   0.75056800  0.50170900  0.24999700
   0.24943200  0.25170900  0.00000300
   0.74943200  0.25170900  0.00000300
   0.24943200  0.75170900  0.00000300
   0.74943200  0.75170900  0.00000300
   0.00056800  0.25170900  0.74999700
   0.50056800  0.25170900  0.74999700
   0.00056800  0.75170900  0.74999700
   0.50056800  0.75170900  0.74999700
   0.99971900  0.00163900  0.00005200
   0.49971900  0.00163900  0.00005200
   0.99971900  0.50163900  0.00005200
   0.49971900  0.50163900  0.00005200
   0.25028100  0.00163900  0.74994800
   0.75028100  0.00163900  0.74994800
   0.25028100  0.50163900  0.74994800
   0.75028100  0.50163900  0.74994800
   0.24971900  0.25163900  0.50005200
   0.74971900  0.25163900  0.50005200
   0.24971900  0.75163900  0.50005200
   0.74971900  0.75163900  0.50005200
   0.00028100  0.25163900  0.24994800
   0.50028100  0.25163900  0.24994800
   0.00028100  0.75163900  0.24994800
   0.50028100  0.75163900  0.24994800
 
 position of ions in cartesian coordinates  (Angst):
   1.34716830  1.29413062  1.32529796
   6.60441280  1.29413062  1.40788546
   1.34716830  6.55260112  1.32529796
   6.60441280  6.55260112  1.40788546
   3.95095745  3.92336587  1.35964529
   9.20820195  3.92336587  1.44223279
   3.95095745  9.18183637  1.35964529
   9.20820195  9.18183637  1.44223279
   1.45739550  3.91727657  9.12889200
   6.71464000  3.91727657  9.21147950
   1.45739550  9.17574707  9.12889200
   6.71464000  9.17574707  9.21147950
   4.08601775  1.31175702  9.17018575
   9.34326225  1.31175702  9.25277325
   4.08601775  6.57022752  9.17018575
   9.34326225  6.57022752  9.25277325
   1.40409770  1.29413062  6.52306304
   6.66134220  1.29413062  6.60565054
   1.40409770  6.55260112  6.52306304
   6.66134220  6.55260112  6.60565054
   4.05755305  3.92336587  6.57130321
   9.31479755  3.92336587  6.65389071
   4.05755305  9.18183637  6.57130321
   9.31479755  9.18183637  6.65389071
   4.00425525  1.28804132  3.96547425
   9.26149975  1.28804132  4.04806175
   4.00425525  6.54651182  3.96547425
   9.26149975  6.54651182  4.04806175
   1.37563300  3.94099227  3.92418050
   6.63287750  3.94099227  4.00676800
   1.37563300  9.19946277  3.92418050
   6.63287750  9.19946277  4.00676800
  10.59027976  0.01797345  5.36982391
   5.33303526  0.01797345  5.28723641
  10.59027976  5.27644395  5.36982391
   5.33303526  5.27644395  5.28723641
   2.67547524  0.01797345  2.64371209
   7.93271974  0.01797345  2.72629959
   2.67547524  5.27644395  2.64371209
   7.93271974  5.27644395  2.72629959
   2.62265051  2.64720870  0.04123116
   7.87989501  2.64720870  0.12381866
   2.62265051  7.90567920  0.04123116
   7.87989501  7.90567920  0.12381866
   0.12861549  2.64720870  7.80712984
   5.38585999  2.64720870  7.88971734
   0.12861549  7.90567920  7.80712984
   5.38585999  7.90567920  7.88971734
  10.51154293  0.01723727  0.16566988
   5.25429843  0.01723727  0.08308238
  10.51154293  5.27570777  0.16566988
   5.25429843  5.27570777  0.08308238
   2.75421207  0.01723727  7.84786612
   8.01145657  0.01723727  7.93045362
   2.75421207  5.27570777  7.84786612
   8.01145657  5.27570777  7.93045362
   2.70743868  2.64647252  5.24650013
   7.96468318  2.64647252  5.32908763
   2.70743868  7.90494302  5.24650013
   7.96468318  7.90494302  5.32908763
   0.04382732  2.64647252  2.60186087
   5.30107182  2.64647252  2.68444837
   0.04382732  7.90494302  2.60186087
   5.30107182  7.90494302  2.68444837
 


--------------------------------------------------------------------------------------------------------


 k-point  1 :   0.0000 0.0000 0.0000  plane waves:   48433
 k-point  2 :   0.5000 0.0000 0.0000  plane waves:   48382
 k-point  3 :   0.0000 0.5000 0.0000  plane waves:   48450
 k-point  4 :   0.5000 0.5000 0.0000  plane waves:   48404
 k-point  5 :  -0.0000 0.0000 0.5000  plane waves:   48372
 k-point  6 :   0.5000 0.0000 0.5000  plane waves:   48420
 k-point  7 :  -0.0000 0.5000 0.5000  plane waves:   48360
 k-point  8 :   0.5000 0.5000 0.5000  plane waves:   48332

 maximum and minimum number of plane-waves per node :     48450    48332

 maximum number of plane-waves:     48450
 maximum index in each direction: 
   IXMAX=   22   IYMAX=   22   IZMAX=   22
   IXMIN=  -23   IYMIN=  -23   IZMIN=  -22


 serial   3D FFT for wavefunctions
 parallel 3D FFT for charge:
    minimum data exchange during FFTs selected (reduces bandwidth)


 total amount of memory used by VASP MPI-rank0   349631. kBytes
=======================================================================

   base      :      30000. kBytes
   nonl-proj :     217907. kBytes
   fftplans  :       4588. kBytes
   grid      :      69719. kBytes
   one-center:       1990. kBytes
   wavefun   :      25427. kBytes
 
     INWAV:  cpu time    0.0001: real time    0.0001
 Broyden mixing: mesh for mixing (old mesh)
   NGX = 45   NGY = 45   NGZ = 45
  (NGX  =192   NGY  =192   NGZ  =180)
  gives a total of  91125 points

 initial charge density was supplied:
 number of electron     688.0000287 magnetization       0.0000000
 keeping initial charge density in first step


--------------------------------------------------------------------------------------------------------


 Maximum index for augmentation-charges          897 (set IRDMAX)


--------------------------------------------------------------------------------------------------------


 First call to EWALD:  gamma=   0.169
 Maximum number of real-space cells 3x 3x 3
 Maximum number of reciprocal cells 3x 3x 3

    FEWALD:  cpu time    0.0027: real time    0.0031


--------------------------------------- Iteration      1(   1)  ---------------------------------------


    POTLOK:  cpu time    0.3396: real time    0.3865
    SETDIJ:  cpu time    0.0148: real time    0.0150
     EDDAV:  cpu time   84.8983: real time   85.5880
 BZINTS: Fermi energy: 14.971757;688.000000 electrons
         Band energy:***********;  BLOECHL correction: -0.021912
       DOS:  cpu time    0.0418: real time    0.0420
    --------------------------------------------
      LOOP:  cpu time   85.2946: real time   86.0315

 eigenvalue-minimisations  : 16384
 total energy-change (2. order) : 0.6054537E+04  (-0.5161574E+05)
 number of electron     688.0000287 magnetization       0.0000000
 augmentation part      688.0000287 magnetization       0.0000000

 Free energy of the ion-electron system (eV)
  ---------------------------------------------------
  alpha Z        PSCENC =      2355.89840191
  Ewald energy   TEWEN  =    -62469.23330756
  -Hartree energ DENC   =    -42950.61219966
  -exchange      EXHF   =         0.00000000
  -V(xc)+E(xc)   XCENC  =      3286.39558855
  PAW double counting   =    112259.81449706  -115953.62387450
  entropy T*S    EENTRO =         0.00000000
  eigenvalues    EBANDS =     -4494.16722797
  atomic energy  EATOM  =    114020.06510763
  Solvation  Ediel_sol  =         0.00000000
  ---------------------------------------------------
  free energy    TOTEN  =      6054.53698546 eV

  energy without entropy =     6054.53698546  energy(sigma->0) =     6054.53698546


--------------------------------------------------------------------------------------------------------




--------------------------------------- Iteration      1(   2)  ---------------------------------------


     EDDAV:  cpu time   98.6586: real time   99.4085
 BZINTS: Fermi energy:  5.521368;688.000000 electrons
         Band energy:***********;  BLOECHL correction:  0.000000
       DOS:  cpu time    0.0070: real time    0.0070
    --------------------------------------------
      LOOP:  cpu time   98.6656: real time   99.4155

 eigenvalue-minimisations  : 17920
 total energy-change (2. order) :-0.6130999E+04  (-0.6020990E+04)
 number of electron     688.0000287 magnetization       0.0000000
 augmentation part      688.0000287 magnetization       0.0000000

 Free energy of the ion-electron system (eV)
  ---------------------------------------------------
  alpha Z        PSCENC =      2355.89840191
  Ewald energy   TEWEN  =    -62469.23330756
  -Hartree energ DENC   =    -42950.61219966
  -exchange      EXHF   =         0.00000000
  -V(xc)+E(xc)   XCENC  =      3286.39558855
  PAW double counting   =    112259.81449706  -115953.62387450
  entropy T*S    EENTRO =         0.00000000
  eigenvalues    EBANDS =    -10625.16595495
  atomic energy  EATOM  =    114020.06510763
  Solvation  Ediel_sol  =         0.00000000
  ---------------------------------------------------
  free energy    TOTEN  =       -76.46174152 eV

  energy without entropy =      -76.46174152  energy(sigma->0) =      -76.46174152


--------------------------------------------------------------------------------------------------------




--------------------------------------- Iteration      1(   3)  ---------------------------------------


     EDDAV:  cpu time  163.2349: real time  164.3547
 BZINTS: Fermi energy:  4.965750;688.000000 electrons
         Band energy:***********;  BLOECHL correction:  0.000000
       DOS:  cpu time    0.0067: real time    0.0068
    --------------------------------------------
      LOOP:  cpu time  163.2416: real time  164.3615

 eigenvalue-minimisations  : 23296
 total energy-change (2. order) :-0.2481053E+03  (-0.2471881E+03)
 number of electron     688.0000287 magnetization       0.0000000
 augmentation part      688.0000287 magnetization       0.0000000

 Free energy of the ion-electron system (eV)
  ---------------------------------------------------
  alpha Z        PSCENC =      2355.89840191
  Ewald energy   TEWEN  =    -62469.23330756
  -Hartree energ DENC   =    -42950.61219966
  -exchange      EXHF   =         0.00000000
  -V(xc)+E(xc)   XCENC  =      3286.39558855
  PAW double counting   =    112259.81449706  -115953.62387450
  entropy T*S    EENTRO =         0.00000000
  eigenvalues    EBANDS =    -10873.27128890
  atomic energy  EATOM  =    114020.06510763
  Solvation  Ediel_sol  =         0.00000000
  ---------------------------------------------------
  free energy    TOTEN  =      -324.56707548 eV

  energy without entropy =     -324.56707548  energy(sigma->0) =     -324.56707548


--------------------------------------------------------------------------------------------------------




--------------------------------------- Iteration      1(   4)  ---------------------------------------


     EDDAV:  cpu time  107.9327: real time  108.7285
 BZINTS: Fermi energy:  4.831972;688.000000 electrons
         Band energy:***********;  BLOECHL correction:  0.000000
       DOS:  cpu time    0.0058: real time    0.0058
    --------------------------------------------
      LOOP:  cpu time  107.9384: real time  108.7343

 eigenvalue-minimisations  : 18432
 total energy-change (2. order) :-0.3396143E+01  (-0.3396015E+01)
 number of electron     688.0000287 magnetization       0.0000000
 augmentation part      688.0000287 magnetization       0.0000000

 Free energy of the ion-electron system (eV)
  ---------------------------------------------------
  alpha Z        PSCENC =      2355.89840191
  Ewald energy   TEWEN  =    -62469.23330756
  -Hartree energ DENC   =    -42950.61219966
  -exchange      EXHF   =         0.00000000
  -V(xc)+E(xc)   XCENC  =      3286.39558855
  PAW double counting   =    112259.81449706  -115953.62387450
  entropy T*S    EENTRO =         0.00000000
  eigenvalues    EBANDS =    -10876.66743183
  atomic energy  EATOM  =    114020.06510763
  Solvation  Ediel_sol  =         0.00000000
  ---------------------------------------------------
  free energy    TOTEN  =      -327.96321840 eV

  energy without entropy =     -327.96321840  energy(sigma->0) =     -327.96321840


--------------------------------------------------------------------------------------------------------




--------------------------------------- Iteration      1(   5)  ---------------------------------------


     EDDAV:  cpu time  163.4587: real time  164.5789
 BZINTS: Fermi energy:  5.001810;688.000000 electrons
         Band energy:***********;  BLOECHL correction:  0.000000
       DOS:  cpu time    0.0066: real time    0.0066
    CHARGE:  cpu time    1.4031: real time    1.4119
    MIXING:  cpu time    0.0021: real time    0.0022
    --------------------------------------------
      LOOP:  cpu time  164.8705: real time  165.9996

 eigenvalue-minimisations  : 23040
 total energy-change (2. order) :-0.1030903E+00  (-0.1030897E+00)
 number of electron     688.0000326 magnetization       0.0000000
 augmentation part      282.2666727 magnetization       0.0000000

 Broyden mixing:
  rms(total) = 0.18513E+00    rms(broyden)= 0.18510E+00
  rms(prec ) = 0.20607E+00
  weight for this iteration     100.00

 Free energy of the ion-electron system (eV)
  ---------------------------------------------------
  alpha Z        PSCENC =      2355.89840191
  Ewald energy   TEWEN  =    -62469.23330756
  -Hartree energ DENC   =    -42950.61219966
  -exchange      EXHF   =         0.00000000
  -V(xc)+E(xc)   XCENC  =      3286.39558855
  PAW double counting   =    112259.81449706  -115953.62387450
  entropy T*S    EENTRO =         0.00000000
  eigenvalues    EBANDS =    -10876.77052213
  atomic energy  EATOM  =    114020.06510763
  Solvation  Ediel_sol  =         0.00000000
  ---------------------------------------------------
  free energy    TOTEN  =      -328.06630870 eV

  energy without entropy =     -328.06630870  energy(sigma->0) =     -328.06630870


--------------------------------------------------------------------------------------------------------




--------------------------------------- Iteration      1(   6)  ---------------------------------------


    POTLOK:  cpu time    0.1280: real time    0.1321
    SETDIJ:  cpu time    0.0128: real time    0.0129
     EDDAV:  cpu time  148.3339: real time  149.3576
 BZINTS: Fermi energy:  4.994006;688.000000 electrons
         Band energy:***********;  BLOECHL correction:  0.000000
       DOS:  cpu time    0.0067: real time    0.0067
    CHARGE:  cpu time    1.4022: real time    1.4107
    MIXING:  cpu time    0.0024: real time    0.0083
    --------------------------------------------
      LOOP:  cpu time  149.8861: real time  150.9284

 eigenvalue-minimisations  : 21760
 total energy-change (2. order) : 0.3551206E-01  (-0.8250030E-02)
 number of electron     688.0000326 magnetization       0.0000000
 augmentation part      282.1951140 magnetization       0.0000000

 Broyden mixing:
  rms(total) = 0.98332E-01    rms(broyden)= 0.98330E-01
  rms(prec ) = 0.10944E+00
  weight for this iteration     100.00

 eigenvalues of (default mixing * dielectric matrix)
  average eigenvalue GAMMA=   0.9166
  0.9166

 Free energy of the ion-electron system (eV)
  ---------------------------------------------------
  alpha Z        PSCENC =      2355.89840191
  Ewald energy   TEWEN  =    -62469.23330756
  -Hartree energ DENC   =    -42954.34214128
  -exchange      EXHF   =         0.00000000
  -V(xc)+E(xc)   XCENC  =      3286.52551943
  PAW double counting   =    112289.37371761  -115983.72892646
  entropy T*S    EENTRO =         0.00000000
  eigenvalues    EBANDS =    -10872.58916791
  atomic energy  EATOM  =    114020.06510763
  Solvation  Ediel_sol  =         0.00000000
  ---------------------------------------------------
  free energy    TOTEN  =      -328.03079663 eV

  energy without entropy =     -328.03079663  energy(sigma->0) =     -328.03079663


--------------------------------------------------------------------------------------------------------




--------------------------------------- Iteration      1(   7)  ---------------------------------------


    POTLOK:  cpu time    0.1343: real time    0.1354
    SETDIJ:  cpu time    0.0129: real time    0.0130
     EDDAV:  cpu time  181.1990: real time  182.4243
 BZINTS: Fermi energy:  4.986146;688.000000 electrons
         Band energy:***********;  BLOECHL correction:  0.000000
       DOS:  cpu time    0.0067: real time    0.0067
    CHARGE:  cpu time    1.3933: real time    1.4020
    MIXING:  cpu time    0.0017: real time    0.0195
    --------------------------------------------
      LOOP:  cpu time  182.7478: real time  184.0008

 eigenvalue-minimisations  : 25344
 total energy-change (2. order) : 0.1108050E-01  (-0.3895091E-02)
 number of electron     688.0000326 magnetization       0.0000000
 augmentation part      282.2510023 magnetization       0.0000000

 Broyden mixing:
  rms(total) = 0.58053E-01    rms(broyden)= 0.58052E-01
  rms(prec ) = 0.63695E-01
  weight for this iteration     100.00

 eigenvalues of (default mixing * dielectric matrix)
  average eigenvalue GAMMA=   1.1704
  1.6996  0.6413

 Free energy of the ion-electron system (eV)
  ---------------------------------------------------
  alpha Z        PSCENC =      2355.89840191
  Ewald energy   TEWEN  =    -62469.23330756
  -Hartree energ DENC   =    -42949.90663554
  -exchange      EXHF   =         0.00000000
  -V(xc)+E(xc)   XCENC  =      3286.39941374
  PAW double counting   =    112280.06586926  -115973.62439873
  entropy T*S    EENTRO =         0.00000000
  eigenvalues    EBANDS =    -10877.68416685
  atomic energy  EATOM  =    114020.06510763
  Solvation  Ediel_sol  =         0.00000000
  ---------------------------------------------------
  free energy    TOTEN  =      -328.01971614 eV

  energy without entropy =     -328.01971614  energy(sigma->0) =     -328.01971614


--------------------------------------------------------------------------------------------------------




--------------------------------------- Iteration      1(   8)  ---------------------------------------


    POTLOK:  cpu time    0.1307: real time    0.1318
    SETDIJ:  cpu time    0.0130: real time    0.0130
     EDDAV:  cpu time  158.3658: real time  159.4485
 BZINTS: Fermi energy:  4.984426;688.000000 electrons
         Band energy:***********;  BLOECHL correction:  0.000000
       DOS:  cpu time    0.0067: real time    0.0068
    CHARGE:  cpu time    1.3972: real time    1.4061
    MIXING:  cpu time    0.0014: real time    0.0014
    --------------------------------------------
      LOOP:  cpu time  159.9148: real time  161.0076

 eigenvalue-minimisations  : 22528
 total energy-change (2. order) : 0.3019634E-03  (-0.3065976E-02)
 number of electron     688.0000326 magnetization       0.0000000
 augmentation part      282.2315699 magnetization       0.0000000

 Broyden mixing:
  rms(total) = 0.49504E-01    rms(broyden)= 0.49502E-01
  rms(prec ) = 0.57997E-01
  weight for this iteration     100.00

 eigenvalues of (default mixing * dielectric matrix)
  average eigenvalue GAMMA=   0.9381
  1.8153  0.6490  0.3500

 Free energy of the ion-electron system (eV)
  ---------------------------------------------------
  alpha Z        PSCENC =      2355.89840191
  Ewald energy   TEWEN  =    -62469.23330756
  -Hartree energ DENC   =    -42953.52770123
  -exchange      EXHF   =         0.00000000
  -V(xc)+E(xc)   XCENC  =      3286.54406883
  PAW double counting   =    112273.29281300  -115967.22888955
  entropy T*S    EENTRO =         0.00000000
  eigenvalues    EBANDS =    -10873.82990720
  atomic energy  EATOM  =    114020.06510763
  Solvation  Ediel_sol  =         0.00000000
  ---------------------------------------------------
  free energy    TOTEN  =      -328.01941417 eV

  energy without entropy =     -328.01941417  energy(sigma->0) =     -328.01941417


--------------------------------------------------------------------------------------------------------




--------------------------------------- Iteration      1(   9)  ---------------------------------------


    POTLOK:  cpu time    0.1289: real time    0.1319
    SETDIJ:  cpu time    0.0129: real time    0.0130
     EDDAV:  cpu time  135.6468: real time  136.5975
 BZINTS: Fermi energy:  4.979157;688.000000 electrons
         Band energy:***********;  BLOECHL correction:  0.000000
       DOS:  cpu time    0.0067: real time    0.0067
    CHARGE:  cpu time    1.3934: real time    1.4023
    MIXING:  cpu time    0.0017: real time    0.0029
    --------------------------------------------
      LOOP:  cpu time  137.1904: real time  138.1544

 eigenvalue-minimisations  : 20480
 total energy-change (2. order) : 0.9489248E-03  (-0.1173229E-02)
 number of electron     688.0000326 magnetization       0.0000000
 augmentation part      282.2202349 magnetization       0.0000000

 Broyden mixing:
  rms(total) = 0.19347E-01    rms(broyden)= 0.19347E-01
  rms(prec ) = 0.20030E-01
  weight for this iteration     100.00

 eigenvalues of (default mixing * dielectric matrix)
  average eigenvalue GAMMA=   0.9291
  1.9450  0.8498  0.6126  0.3091

 Free energy of the ion-electron system (eV)
  ---------------------------------------------------
  alpha Z        PSCENC =      2355.89840191
  Ewald energy   TEWEN  =    -62469.23330756
  -Hartree energ DENC   =    -42952.74504841
  -exchange      EXHF   =         0.00000000
  -V(xc)+E(xc)   XCENC  =      3286.47631182
  PAW double counting   =    112270.11376505  -115964.05968484
  entropy T*S    EENTRO =         0.00000000
  eigenvalues    EBANDS =    -10874.53401086
  atomic energy  EATOM  =    114020.06510763
  Solvation  Ediel_sol  =         0.00000000
  ---------------------------------------------------
  free energy    TOTEN  =      -328.01846525 eV

  energy without entropy =     -328.01846525  energy(sigma->0) =     -328.01846525


--------------------------------------------------------------------------------------------------------




--------------------------------------- Iteration      1(  10)  ---------------------------------------


    POTLOK:  cpu time    0.1300: real time    0.1326
    SETDIJ:  cpu time    0.0130: real time    0.0131
     EDDAV:  cpu time  124.7468: real time  125.6298
 BZINTS: Fermi energy:  4.975194;688.000000 electrons
         Band energy:***********;  BLOECHL correction:  0.000000
       DOS:  cpu time    0.0067: real time    0.0067
    CHARGE:  cpu time    1.3958: real time    1.4044
    MIXING:  cpu time    0.0014: real time    0.0014
    --------------------------------------------
      LOOP:  cpu time  126.2938: real time  127.1881

 eigenvalue-minimisations  : 19456
 total energy-change (2. order) :-0.9436057E-04  (-0.4783234E-04)
 number of electron     688.0000326 magnetization       0.0000000
 augmentation part      282.2200089 magnetization       0.0000000

 Broyden mixing:
  rms(total) = 0.11524E-01    rms(broyden)= 0.11524E-01
  rms(prec ) = 0.12173E-01
  weight for this iteration     100.00

 eigenvalues of (default mixing * dielectric matrix)
  average eigenvalue GAMMA=   0.9866
  1.7939  1.5677  0.6861  0.5499  0.3356

 Free energy of the ion-electron system (eV)
  ---------------------------------------------------
  alpha Z        PSCENC =      2355.89840191
  Ewald energy   TEWEN  =    -62469.23330756
  -Hartree energ DENC   =    -42952.73155418
  -exchange      EXHF   =         0.00000000
  -V(xc)+E(xc)   XCENC  =      3286.47779514
  PAW double counting   =    112266.73769250  -115960.60411941
  entropy T*S    EENTRO =         0.00000000
  eigenvalues    EBANDS =    -10874.62857565
  atomic energy  EATOM  =    114020.06510763
  Solvation  Ediel_sol  =         0.00000000
  ---------------------------------------------------
  free energy    TOTEN  =      -328.01855961 eV

  energy without entropy =     -328.01855961  energy(sigma->0) =     -328.01855961


--------------------------------------------------------------------------------------------------------




--------------------------------------- Iteration      1(  11)  ---------------------------------------


    POTLOK:  cpu time    0.1306: real time    0.1315
    SETDIJ:  cpu time    0.0129: real time    0.0129
     EDDAV:  cpu time  188.2054: real time  189.4655
 BZINTS: Fermi energy:  4.972258;688.000000 electrons
         Band energy:***********;  BLOECHL correction:  0.000000
       DOS:  cpu time    0.0068: real time    0.0068
    CHARGE:  cpu time    1.3978: real time    1.4064
    MIXING:  cpu time    0.0015: real time    0.0015
    --------------------------------------------
      LOOP:  cpu time  189.7549: real time  191.0247

 eigenvalue-minimisations  : 26112
 total energy-change (2. order) :-0.6066801E-04  (-0.3417759E-04)
 number of electron     688.0000326 magnetization       0.0000000
 augmentation part      282.2248129 magnetization       0.0000000

 Broyden mixing:
  rms(total) = 0.54464E-02    rms(broyden)= 0.54462E-02
  rms(prec ) = 0.56369E-02
  weight for this iteration     100.00

 eigenvalues of (default mixing * dielectric matrix)
  average eigenvalue GAMMA=   1.1476
  2.2058  2.2058  0.9260  0.3388  0.6590  0.5500

 Free energy of the ion-electron system (eV)
  ---------------------------------------------------
  alpha Z        PSCENC =      2355.89840191
  Ewald energy   TEWEN  =    -62469.23330756
  -Hartree energ DENC   =    -42952.64482358
  -exchange      EXHF   =         0.00000000
  -V(xc)+E(xc)   XCENC  =      3286.48124437
  PAW double counting   =    112264.56910271  -115958.39555496
  entropy T*S    EENTRO =         0.00000000
  eigenvalues    EBANDS =    -10874.75879079
  atomic energy  EATOM  =    114020.06510763
  Solvation  Ediel_sol  =         0.00000000
  ---------------------------------------------------
  free energy    TOTEN  =      -328.01862028 eV

  energy without entropy =     -328.01862028  energy(sigma->0) =     -328.01862028


--------------------------------------------------------------------------------------------------------




--------------------------------------- Iteration      1(  12)  ---------------------------------------


    POTLOK:  cpu time    0.1315: real time    0.1325
    SETDIJ:  cpu time    0.0130: real time    0.0131
     EDDAV:  cpu time  122.4717: real time  123.3493
 BZINTS: Fermi energy:  4.970552;688.000000 electrons
         Band energy:***********;  BLOECHL correction:  0.000000
       DOS:  cpu time    0.0067: real time    0.0068
    CHARGE:  cpu time    1.4036: real time    1.4126
    MIXING:  cpu time    0.0015: real time    0.0016
    --------------------------------------------
      LOOP:  cpu time  124.0281: real time  124.9159

 eigenvalue-minimisations  : 19456
 total energy-change (2. order) :-0.4884260E-04  (-0.1422219E-04)
 number of electron     688.0000326 magnetization       0.0000000
 augmentation part      282.2226294 magnetization       0.0000000

 Broyden mixing:
  rms(total) = 0.19700E-02    rms(broyden)= 0.19698E-02
  rms(prec ) = 0.21694E-02
  weight for this iteration     100.00

 eigenvalues of (default mixing * dielectric matrix)
  average eigenvalue GAMMA=   1.1302
  2.2624  2.2624  1.0096  0.3378  0.7816  0.6545  0.6035

 Free energy of the ion-electron system (eV)
  ---------------------------------------------------
  alpha Z        PSCENC =      2355.89840191
  Ewald energy   TEWEN  =    -62469.23330756
  -Hartree energ DENC   =    -42952.78063524
  -exchange      EXHF   =         0.00000000
  -V(xc)+E(xc)   XCENC  =      3286.48123926
  PAW double counting   =    112262.74834390  -115956.59941504
  entropy T*S    EENTRO =         0.00000000
  eigenvalues    EBANDS =    -10874.59840398
  atomic energy  EATOM  =    114020.06510763
  Solvation  Ediel_sol  =         0.00000000
  ---------------------------------------------------
  free energy    TOTEN  =      -328.01866912 eV

  energy without entropy =     -328.01866912  energy(sigma->0) =     -328.01866912


--------------------------------------------------------------------------------------------------------




--------------------------------------- Iteration      1(  13)  ---------------------------------------


    POTLOK:  cpu time    0.1300: real time    0.1312
    SETDIJ:  cpu time    0.0129: real time    0.0129
     EDDAV:  cpu time  163.8693: real time  164.9651
 BZINTS: Fermi energy:  4.969835;688.000000 electrons
         Band energy:***********;  BLOECHL correction:  0.000000
       DOS:  cpu time    0.0068: real time    0.0068
    CHARGE:  cpu time    1.3998: real time    1.4087
    MIXING:  cpu time    0.0016: real time    0.0016
    --------------------------------------------
      LOOP:  cpu time  165.4203: real time  166.5264

 eigenvalue-minimisations  : 22528
 total energy-change (2. order) :-0.7019262E-05  (-0.2192800E-05)
 number of electron     688.0000326 magnetization       0.0000000
 augmentation part      282.2228870 magnetization       0.0000000

 Broyden mixing:
  rms(total) = 0.12572E-02    rms(broyden)= 0.12571E-02
  rms(prec ) = 0.13365E-02
  weight for this iteration     100.00

 eigenvalues of (default mixing * dielectric matrix)
  average eigenvalue GAMMA=   1.1299
  2.2671  2.2671  1.0986  1.0986  0.3377  0.6033  0.6833  0.6833

 Free energy of the ion-electron system (eV)
  ---------------------------------------------------
  alpha Z        PSCENC =      2355.89840191
  Ewald energy   TEWEN  =    -62469.23330756
  -Hartree energ DENC   =    -42952.71551592
  -exchange      EXHF   =         0.00000000
  -V(xc)+E(xc)   XCENC  =      3286.47948228
  PAW double counting   =    112262.32544845  -115956.15997451
  entropy T*S    EENTRO =         0.00000000
  eigenvalues    EBANDS =    -10874.67831842
  atomic energy  EATOM  =    114020.06510763
  Solvation  Ediel_sol  =         0.00000000
  ---------------------------------------------------
  free energy    TOTEN  =      -328.01867614 eV

  energy without entropy =     -328.01867614  energy(sigma->0) =     -328.01867614


--------------------------------------------------------------------------------------------------------




--------------------------------------- Iteration      1(  14)  ---------------------------------------


    POTLOK:  cpu time    0.1317: real time    0.1328
    SETDIJ:  cpu time    0.0128: real time    0.0129
     EDDAV:  cpu time  130.1549: real time  131.0644
 BZINTS: Fermi energy:  4.969700;688.000000 electrons
         Band energy:***********;  BLOECHL correction:  0.000000
       DOS:  cpu time    0.0068: real time    0.0068
    CHARGE:  cpu time    1.4040: real time    1.4135
    MIXING:  cpu time    0.0015: real time    0.0015
    --------------------------------------------
      LOOP:  cpu time  131.7116: real time  132.6320

 eigenvalue-minimisations  : 19968
 total energy-change (2. order) :-0.5273861E-05  (-0.1333888E-05)
 number of electron     688.0000326 magnetization       0.0000000
 augmentation part      282.2228935 magnetization       0.0000000

 Broyden mixing:
  rms(total) = 0.75343E-03    rms(broyden)= 0.75337E-03
  rms(prec ) = 0.78901E-03
  weight for this iteration     100.00

 eigenvalues of (default mixing * dielectric matrix)
  average eigenvalue GAMMA=   1.2328
  2.5028  2.5028  1.7989  1.3449  0.3377  0.7251  0.6777  0.6025  0.6025

 Free energy of the ion-electron system (eV)
  ---------------------------------------------------
  alpha Z        PSCENC =      2355.89840191
  Ewald energy   TEWEN  =    -62469.23330756
  -Hartree energ DENC   =    -42952.73831759
  -exchange      EXHF   =         0.00000000
  -V(xc)+E(xc)   XCENC  =      3286.48077826
  PAW double counting   =    112262.08297925  -115955.92670325
  entropy T*S    EENTRO =         0.00000000
  eigenvalues    EBANDS =    -10874.64762005
  atomic energy  EATOM  =    114020.06510763
  Solvation  Ediel_sol  =         0.00000000
  ---------------------------------------------------
  free energy    TOTEN  =      -328.01868141 eV

  energy without entropy =     -328.01868141  energy(sigma->0) =     -328.01868141


--------------------------------------------------------------------------------------------------------




--------------------------------------- Iteration      1(  15)  ---------------------------------------


    POTLOK:  cpu time    0.1299: real time    0.1308
    SETDIJ:  cpu time    0.0131: real time    0.0132
     EDDAV:  cpu time  138.6349: real time  139.6017
 BZINTS: Fermi energy:  4.969609;688.000000 electrons
         Band energy:***********;  BLOECHL correction:  0.000000
       DOS:  cpu time    0.0067: real time    0.0067
    CHARGE:  cpu time    1.3981: real time    1.4070
    MIXING:  cpu time    0.0018: real time    0.0018
    --------------------------------------------
      LOOP:  cpu time  140.1845: real time  141.1612

 eigenvalue-minimisations  : 20480
 total energy-change (2. order) :-0.3061592E-05  (-0.9550268E-06)
 number of electron     688.0000326 magnetization       0.0000000
 augmentation part      282.2227192 magnetization       0.0000000

 Broyden mixing:
  rms(total) = 0.39117E-03    rms(broyden)= 0.39108E-03
  rms(prec ) = 0.41255E-03
  weight for this iteration     100.00

 eigenvalues of (default mixing * dielectric matrix)
  average eigenvalue GAMMA=   1.2520
  3.1399  2.2494  1.9949  1.0978  1.0978  0.3377  0.7065  0.5991  0.6487  0.6487

 Free energy of the ion-electron system (eV)
  ---------------------------------------------------
  alpha Z        PSCENC =      2355.89840191
  Ewald energy   TEWEN  =    -62469.23330756
  -Hartree energ DENC   =    -42952.73958540
  -exchange      EXHF   =         0.00000000
  -V(xc)+E(xc)   XCENC  =      3286.48064876
  PAW double counting   =    112261.94498701  -115955.78787818
  entropy T*S    EENTRO =         0.00000000
  eigenvalues    EBANDS =    -10874.64705865
  atomic energy  EATOM  =    114020.06510763
  Solvation  Ediel_sol  =         0.00000000
  ---------------------------------------------------
  free energy    TOTEN  =      -328.01868447 eV

  energy without entropy =     -328.01868447  energy(sigma->0) =     -328.01868447


--------------------------------------------------------------------------------------------------------




--------------------------------------- Iteration      1(  16)  ---------------------------------------


    POTLOK:  cpu time    0.1283: real time    0.1320
    SETDIJ:  cpu time    0.0130: real time    0.0131
     EDDAV:  cpu time  135.5229: real time  136.4725
 BZINTS: Fermi energy:  4.969544;688.000000 electrons
         Band energy:***********;  BLOECHL correction:  0.000000
       DOS:  cpu time    0.0067: real time    0.0067
    CHARGE:  cpu time    1.4036: real time    1.4130
    MIXING:  cpu time    0.0018: real time    0.0025
    --------------------------------------------
      LOOP:  cpu time  137.0763: real time  138.0399

 eigenvalue-minimisations  : 20224
 total energy-change (2. order) :-0.7680355E-06  (-0.2061341E-06)
 number of electron     688.0000326 magnetization       0.0000000
 augmentation part      282.2229737 magnetization       0.0000000

 Broyden mixing:
  rms(total) = 0.28080E-03    rms(broyden)= 0.28077E-03
  rms(prec ) = 0.29552E-03
  weight for this iteration     100.00

 eigenvalues of (default mixing * dielectric matrix)
  average eigenvalue GAMMA=   1.3075
  3.4256  2.1692  2.1692  1.4090  1.4090  0.3377  0.8686  0.6675  0.6675  0.5957
  0.6636

 Free energy of the ion-electron system (eV)
  ---------------------------------------------------
  alpha Z        PSCENC =      2355.89840191
  Ewald energy   TEWEN  =    -62469.23330756
  -Hartree energ DENC   =    -42952.72643181
  -exchange      EXHF   =         0.00000000
  -V(xc)+E(xc)   XCENC  =      3286.48027995
  PAW double counting   =    112261.91640260  -115955.75750516
  entropy T*S    EENTRO =         0.00000000
  eigenvalues    EBANDS =    -10874.66163280
  atomic energy  EATOM  =    114020.06510763
  Solvation  Ediel_sol  =         0.00000000
  ---------------------------------------------------
  free energy    TOTEN  =      -328.01868524 eV

  energy without entropy =     -328.01868524  energy(sigma->0) =     -328.01868524


--------------------------------------------------------------------------------------------------------




--------------------------------------- Iteration      1(  17)  ---------------------------------------


    POTLOK:  cpu time    0.1313: real time    0.1323
    SETDIJ:  cpu time    0.0129: real time    0.0129
     EDDAV:  cpu time  147.4891: real time  148.5071
 BZINTS: Fermi energy:  4.969528;688.000000 electrons
         Band energy:***********;  BLOECHL correction:  0.000000
       DOS:  cpu time    0.0067: real time    0.0068
    CHARGE:  cpu time    1.4039: real time    1.4126
    MIXING:  cpu time    0.0018: real time    0.0018
    --------------------------------------------
      LOOP:  cpu time  149.0457: real time  150.0735

 eigenvalue-minimisations  : 21504
 total energy-change (2. order) :-0.2977322E-06  (-0.1510021E-06)
 number of electron     688.0000326 magnetization      -0.0000000
 augmentation part      282.2226626 magnetization      -0.0000000

 Broyden mixing:
  rms(total) = 0.16256E-03    rms(broyden)= 0.16252E-03
  rms(prec ) = 0.17553E-03
  weight for this iteration     100.00

 eigenvalues of (default mixing * dielectric matrix)
  average eigenvalue GAMMA=   1.3853
  4.1734  2.3806  2.3806  1.5896  1.5896  1.0041  0.3377  0.7139  0.6219  0.6219
  0.6484  0.5614

 Free energy of the ion-electron system (eV)
  ---------------------------------------------------
  alpha Z        PSCENC =      2355.89840191
  Ewald energy   TEWEN  =    -62469.23330756
  -Hartree energ DENC   =    -42952.74039149
  -exchange      EXHF   =         0.00000000
  -V(xc)+E(xc)   XCENC  =      3286.48053385
  PAW double counting   =    112262.00846937  -115955.85185948
  entropy T*S    EENTRO =         0.00000000
  eigenvalues    EBANDS =    -10874.64563977
  atomic energy  EATOM  =    114020.06510763
  Solvation  Ediel_sol  =         0.00000000
  ---------------------------------------------------
  free energy    TOTEN  =      -328.01868554 eV

  energy without entropy =     -328.01868554  energy(sigma->0) =     -328.01868554


--------------------------------------------------------------------------------------------------------




--------------------------------------- Iteration      1(  18)  ---------------------------------------


    POTLOK:  cpu time    0.1283: real time    0.1311
    SETDIJ:  cpu time    0.0131: real time    0.0132
     EDDAV:  cpu time  149.9729: real time  151.0081
 BZINTS: Fermi energy:  4.969506;688.000000 electrons
         Band energy:***********;  BLOECHL correction:  0.000000
       DOS:  cpu time    0.0068: real time    0.0069
    CHARGE:  cpu time    1.4021: real time    1.4110
    MIXING:  cpu time    0.0021: real time    0.0021
    --------------------------------------------
      LOOP:  cpu time  151.5253: real time  152.5722

 eigenvalue-minimisations  : 21504
 total energy-change (2. order) :-0.1196750E-06  (-0.8185289E-07)
 number of electron     688.0000326 magnetization      -0.0000000
 augmentation part      282.2228281 magnetization      -0.0000000

 Broyden mixing:
  rms(total) = 0.80465E-04    rms(broyden)= 0.80426E-04
  rms(prec ) = 0.87745E-04
  weight for this iteration     100.00

 eigenvalues of (default mixing * dielectric matrix)
  average eigenvalue GAMMA=   1.3528
  4.3346  2.4040  2.4040  1.6802  1.2220  1.2220  0.3377  0.8205  0.7228  0.6181
  0.6181  0.6340  0.5681

 Free energy of the ion-electron system (eV)
  ---------------------------------------------------
  alpha Z        PSCENC =      2355.89840191
  Ewald energy   TEWEN  =    -62469.23330756
  -Hartree energ DENC   =    -42952.72960105
  -exchange      EXHF   =         0.00000000
  -V(xc)+E(xc)   XCENC  =      3286.48031085
  PAW double counting   =    112262.04465778  -115955.88635682
  entropy T*S    EENTRO =         0.00000000
  eigenvalues    EBANDS =    -10874.65789841
  atomic energy  EATOM  =    114020.06510763
  Solvation  Ediel_sol  =         0.00000000
  ---------------------------------------------------
  free energy    TOTEN  =      -328.01868566 eV

  energy without entropy =     -328.01868566  energy(sigma->0) =     -328.01868566


--------------------------------------------------------------------------------------------------------




--------------------------------------- Iteration      1(  19)  ---------------------------------------


    POTLOK:  cpu time    0.1303: real time    0.1313
    SETDIJ:  cpu time    0.0131: real time    0.0132
     EDDAV:  cpu time  124.6922: real time  125.5750
 BZINTS: Fermi energy:  4.969503;688.000000 electrons
         Band energy:***********;  BLOECHL correction:  0.000000
       DOS:  cpu time    0.0067: real time    0.0068
    CHARGE:  cpu time    1.4023: real time    1.4113
    MIXING:  cpu time    0.0021: real time    0.0021
    --------------------------------------------
      LOOP:  cpu time  126.2467: real time  127.1396

 eigenvalue-minimisations  : 19200
 total energy-change (2. order) :-0.1766603E-07  (-0.3798402E-08)
 number of electron     688.0000326 magnetization      -0.0000000
 augmentation part      282.2228680 magnetization      -0.0000000

 Broyden mixing:
[...]
   -.421E+02 0.109E+02 -.995E+00   0.429E+02 -.110E+02 0.101E+01   -.856E+00 0.713E-01 -.124E-01   0.117E-04 0.274E-04 -.436E-05
   -.421E+02 0.109E+02 -.995E+00   0.429E+02 -.110E+02 0.101E+01   -.856E+00 0.713E-01 -.124E-01   0.117E-04 0.274E-04 -.437E-05
   -.421E+02 0.109E+02 -.995E+00   0.429E+02 -.110E+02 0.101E+01   -.856E+00 0.713E-01 -.124E-01   0.117E-04 0.274E-04 -.436E-05
   -.421E+02 0.109E+02 -.995E+00   0.429E+02 -.110E+02 0.101E+01   -.856E+00 0.713E-01 -.124E-01   0.117E-04 0.274E-04 -.437E-05
   0.421E+02 0.109E+02 0.995E+00   -.429E+02 -.110E+02 -.101E+01   0.856E+00 0.713E-01 0.124E-01   -.117E-04 0.274E-04 0.436E-05
   0.421E+02 0.109E+02 0.995E+00   -.429E+02 -.110E+02 -.101E+01   0.856E+00 0.713E-01 0.124E-01   -.117E-04 0.274E-04 0.436E-05
   0.421E+02 0.109E+02 0.995E+00   -.429E+02 -.110E+02 -.101E+01   0.856E+00 0.713E-01 0.124E-01   -.117E-04 0.274E-04 0.437E-05
   0.421E+02 0.109E+02 0.995E+00   -.429E+02 -.110E+02 -.101E+01   0.856E+00 0.713E-01 0.124E-01   -.117E-04 0.274E-04 0.437E-05
   0.456E-07 -.337E+02 0.198E-07   0.163E-12 0.345E+02 -.146E-12   -.117E-23 -.791E+00 -.414E-24   0.468E-09 0.367E-04 0.735E-08
   0.456E-07 -.337E+02 0.198E-07   0.162E-12 0.345E+02 -.170E-12   0.717E-24 -.791E+00 0.187E-24   -.548E-09 0.367E-04 -.734E-08
   0.456E-07 -.337E+02 0.198E-07   0.171E-12 0.345E+02 -.568E-13   0.155E-23 -.791E+00 0.724E-24   0.468E-09 0.367E-04 0.735E-08
   0.456E-07 -.337E+02 0.198E-07   0.171E-12 0.345E+02 -.110E-12   -.632E-24 -.791E+00 0.595E-24   -.548E-09 0.367E-04 -.734E-08
   -.304E-08 0.507E+02 0.746E-07   0.151E-12 -.516E+02 -.115E-12   -.194E-25 0.930E+00 -.517E-24   -.180E-07 0.177E-04 0.259E-09
   -.304E-08 0.507E+02 0.746E-07   0.131E-12 -.516E+02 -.995E-13   0.129E-23 0.930E+00 -.258E-24   0.179E-07 0.177E-04 -.261E-09
   -.304E-08 0.507E+02 0.746E-07   0.163E-12 -.516E+02 -.131E-12   -.784E-24 0.930E+00 0.103E-24   -.180E-07 0.177E-04 0.260E-09
   -.304E-08 0.507E+02 0.746E-07   0.114E-12 -.516E+02 -.142E-12   -.133E-23 0.930E+00 -.310E-24   0.179E-07 0.177E-04 -.261E-09
   0.234E+01 -.103E+02 0.236E+00   -.231E+01 0.991E+01 -.240E+00   -.304E-01 0.416E+00 0.349E-02   0.149E-04 -.267E-04 -.165E-05
   0.234E+01 -.103E+02 0.236E+00   -.231E+01 0.991E+01 -.240E+00   -.304E-01 0.416E+00 0.349E-02   0.150E-04 -.267E-04 -.163E-05
   0.234E+01 -.103E+02 0.236E+00   -.231E+01 0.991E+01 -.240E+00   -.304E-01 0.416E+00 0.349E-02   0.150E-04 -.267E-04 -.167E-05
   0.234E+01 -.103E+02 0.236E+00   -.231E+01 0.991E+01 -.240E+00   -.304E-01 0.416E+00 0.349E-02   0.150E-04 -.267E-04 -.165E-05
   -.234E+01 -.103E+02 -.236E+00   0.231E+01 0.991E+01 0.240E+00   0.304E-01 0.416E+00 -.349E-02   -.150E-04 -.267E-04 0.165E-05
   -.234E+01 -.103E+02 -.236E+00   0.231E+01 0.991E+01 0.240E+00   0.304E-01 0.416E+00 -.349E-02   -.149E-04 -.267E-04 0.163E-05
   -.234E+01 -.103E+02 -.236E+00   0.231E+01 0.991E+01 0.240E+00   0.304E-01 0.416E+00 -.349E-02   -.150E-04 -.267E-04 0.167E-05
   -.234E+01 -.103E+02 -.236E+00   0.231E+01 0.991E+01 0.240E+00   0.304E-01 0.416E+00 -.349E-02   -.149E-04 -.267E-04 0.165E-05
   0.234E+01 -.103E+02 0.236E+00   -.231E+01 0.991E+01 -.240E+00   -.304E-01 0.416E+00 0.349E-02   0.149E-04 -.267E-04 -.165E-05
   0.234E+01 -.103E+02 0.236E+00   -.231E+01 0.991E+01 -.240E+00   -.304E-01 0.416E+00 0.349E-02   0.150E-04 -.267E-04 -.162E-05
   0.234E+01 -.103E+02 0.236E+00   -.231E+01 0.991E+01 -.240E+00   -.304E-01 0.416E+00 0.349E-02   0.149E-04 -.266E-04 -.167E-05
   0.234E+01 -.103E+02 0.236E+00   -.231E+01 0.991E+01 -.240E+00   -.304E-01 0.416E+00 0.349E-02   0.150E-04 -.266E-04 -.165E-05
   -.234E+01 -.103E+02 -.236E+00   0.231E+01 0.991E+01 0.240E+00   0.304E-01 0.416E+00 -.349E-02   -.150E-04 -.267E-04 0.165E-05
   -.234E+01 -.103E+02 -.236E+00   0.231E+01 0.991E+01 0.240E+00   0.304E-01 0.416E+00 -.349E-02   -.150E-04 -.267E-04 0.162E-05
   -.234E+01 -.103E+02 -.236E+00   0.231E+01 0.991E+01 0.240E+00   0.304E-01 0.416E+00 -.349E-02   -.150E-04 -.266E-04 0.167E-05
   -.234E+01 -.103E+02 -.236E+00   0.231E+01 0.991E+01 0.240E+00   0.304E-01 0.416E+00 -.349E-02   -.150E-04 -.266E-04 0.165E-05
   -.270E+01 -.102E+02 0.316E+00   0.264E+01 0.960E+01 -.324E+00   0.571E-01 0.553E+00 0.782E-02   -.599E-05 -.303E-05 0.319E-05
   -.270E+01 -.102E+02 0.316E+00   0.264E+01 0.960E+01 -.324E+00   0.571E-01 0.553E+00 0.782E-02   -.591E-05 -.302E-05 0.318E-05
   -.270E+01 -.102E+02 0.316E+00   0.264E+01 0.960E+01 -.324E+00   0.571E-01 0.553E+00 0.782E-02   -.599E-05 -.294E-05 0.321E-05
   -.270E+01 -.102E+02 0.316E+00   0.264E+01 0.960E+01 -.324E+00   0.571E-01 0.553E+00 0.782E-02   -.591E-05 -.294E-05 0.320E-05
   0.270E+01 -.102E+02 -.316E+00   -.264E+01 0.960E+01 0.324E+00   -.571E-01 0.553E+00 -.782E-02   0.593E-05 -.303E-05 -.319E-05
   0.270E+01 -.102E+02 -.316E+00   -.264E+01 0.960E+01 0.324E+00   -.571E-01 0.553E+00 -.782E-02   0.597E-05 -.302E-05 -.318E-05
   0.270E+01 -.102E+02 -.316E+00   -.264E+01 0.960E+01 0.324E+00   -.571E-01 0.553E+00 -.782E-02   0.593E-05 -.294E-05 -.321E-05
   0.270E+01 -.102E+02 -.316E+00   -.264E+01 0.960E+01 0.324E+00   -.571E-01 0.553E+00 -.782E-02   0.598E-05 -.294E-05 -.320E-05
   -.270E+01 -.102E+02 0.316E+00   0.264E+01 0.960E+01 -.324E+00   0.571E-01 0.553E+00 0.782E-02   -.597E-05 -.300E-05 0.320E-05
   -.270E+01 -.102E+02 0.316E+00   0.264E+01 0.960E+01 -.324E+00   0.571E-01 0.553E+00 0.782E-02   -.593E-05 -.301E-05 0.317E-05
   -.270E+01 -.102E+02 0.316E+00   0.264E+01 0.960E+01 -.324E+00   0.571E-01 0.553E+00 0.782E-02   -.597E-05 -.296E-05 0.322E-05
   -.270E+01 -.102E+02 0.316E+00   0.264E+01 0.960E+01 -.324E+00   0.571E-01 0.553E+00 0.782E-02   -.593E-05 -.296E-05 0.319E-05
   0.270E+01 -.102E+02 -.316E+00   -.264E+01 0.960E+01 0.324E+00   -.571E-01 0.553E+00 -.782E-02   0.591E-05 -.300E-05 -.319E-05
   0.270E+01 -.102E+02 -.316E+00   -.264E+01 0.960E+01 0.324E+00   -.571E-01 0.553E+00 -.782E-02   0.599E-05 -.301E-05 -.317E-05
   0.270E+01 -.102E+02 -.316E+00   -.264E+01 0.960E+01 0.324E+00   -.571E-01 0.553E+00 -.782E-02   0.591E-05 -.296E-05 -.321E-05
   0.270E+01 -.102E+02 -.316E+00   -.264E+01 0.960E+01 0.324E+00   -.571E-01 0.553E+00 -.782E-02   0.599E-05 -.296E-05 -.319E-05
 -----------------------------------------------------------------------------------------------
   0.102E-06 -.178E+02 0.297E-03   -.178E-13 0.334E-12 -.131E-12   -.180E-14 0.178E+02 -.520E-17   -.116E-09 0.400E-03 -.966E-10
 
 
 POSITION                                       TOTAL-FORCE (eV/Angst)
 -----------------------------------------------------------------------------------
      1.34717      1.29413      1.32530        -0.000326     -0.000249      0.000035
      6.60441      1.29413      1.40789        -0.000326     -0.000249      0.000035
      1.34717      6.55260      1.32530        -0.000326     -0.000249      0.000035
      6.60441      6.55260      1.40789        -0.000326     -0.000249      0.000035
      3.95096      3.92337      1.35965         0.000326     -0.000249     -0.000035
      9.20820      3.92337      1.44223         0.000326     -0.000249     -0.000035
      3.95096      9.18184      1.35965         0.000326     -0.000249     -0.000035
      9.20820      9.18184      1.44223         0.000326     -0.000249     -0.000035
      1.45740      3.91728      9.12889        -0.000000      0.000418     -0.000000
      6.71464      3.91728      9.21148        -0.000000      0.000418     -0.000000
      1.45740      9.17575      9.12889        -0.000000      0.000418     -0.000000
      6.71464      9.17575      9.21148        -0.000000      0.000418     -0.000000
      4.08602      1.31176      9.17019        -0.000000     -0.000158     -0.000000
      9.34326      1.31176      9.25277        -0.000000     -0.000158     -0.000000
      4.08602      6.57023      9.17019        -0.000000     -0.000158     -0.000000
      9.34326      6.57023      9.25277        -0.000000     -0.000158     -0.000000
      1.40410      1.29413      6.52306         0.000326     -0.000249     -0.000035
      6.66134      1.29413      6.60565         0.000326     -0.000249     -0.000035
      1.40410      6.55260      6.52306         0.000326     -0.000249     -0.000035
      6.66134      6.55260      6.60565         0.000326     -0.000249     -0.000035
      4.05755      3.92337      6.57130        -0.000326     -0.000249      0.000035
      9.31480      3.92337      6.65389        -0.000326     -0.000249      0.000035
      4.05755      9.18184      6.57130        -0.000326     -0.000249      0.000035
      9.31480      9.18184      6.65389        -0.000326     -0.000249      0.000035
      4.00426      1.28804      3.96547        -0.000000      0.000418     -0.000000
      9.26150      1.28804      4.04806        -0.000000      0.000418     -0.000000
      4.00426      6.54651      3.96547        -0.000000      0.000418     -0.000000
      9.26150      6.54651      4.04806        -0.000000      0.000418     -0.000000
      1.37563      3.94099      3.92418        -0.000000     -0.000158     -0.000000
      6.63288      3.94099      4.00677        -0.000000     -0.000158     -0.000000
      1.37563      9.19946      3.92418        -0.000000     -0.000158     -0.000000
      6.63288      9.19946      4.00677        -0.000000     -0.000158     -0.000000
     10.59028      0.01797      5.36982        -0.000549     -0.000377     -0.000396
      5.33304      0.01797      5.28724        -0.000549     -0.000377     -0.000396
     10.59028      5.27644      5.36982        -0.000549     -0.000377     -0.000396
      5.33304      5.27644      5.28724        -0.000549     -0.000377     -0.000396
      2.67548      0.01797      2.64371         0.000549     -0.000377      0.000396
      7.93272      0.01797      2.72630         0.000549     -0.000377      0.000396
      2.67548      5.27644      2.64371         0.000549     -0.000377      0.000396
      7.93272      5.27644      2.72630         0.000549     -0.000377      0.000396
      2.62265      2.64721      0.04123        -0.000549     -0.000377     -0.000396
      7.87990      2.64721      0.12382        -0.000549     -0.000377     -0.000396
      2.62265      7.90568      0.04123        -0.000549     -0.000377     -0.000396
      7.87990      7.90568      0.12382        -0.000549     -0.000377     -0.000396
      0.12862      2.64721      7.80713         0.000549     -0.000377      0.000396
      5.38586      2.64721      7.88972         0.000549     -0.000377      0.000396
      0.12862      7.90568      7.80713         0.000549     -0.000377      0.000396
      5.38586      7.90568      7.88972         0.000549     -0.000377      0.000396
     10.51154      0.01724      0.16567        -0.000478      0.000496     -0.000259
      5.25430      0.01724      0.08308        -0.000478      0.000496     -0.000259
     10.51154      5.27571      0.16567        -0.000478      0.000496     -0.000259
      5.25430      5.27571      0.08308        -0.000478      0.000496     -0.000259
      2.75421      0.01724      7.84787         0.000478      0.000496      0.000259
      8.01146      0.01724      7.93045         0.000478      0.000496      0.000259
      2.75421      5.27571      7.84787         0.000478      0.000496      0.000259
      8.01146      5.27571      7.93045         0.000478      0.000496      0.000259
      2.70744      2.64647      5.24650        -0.000478      0.000496     -0.000259
      7.96468      2.64647      5.32909        -0.000478      0.000496     -0.000259
      2.70744      7.90494      5.24650        -0.000478      0.000496     -0.000259
      7.96468      7.90494      5.32909        -0.000478      0.000496     -0.000259
      0.04383      2.64647      2.60186         0.000478      0.000496      0.000259
      5.30107      2.64647      2.68445         0.000478      0.000496      0.000259
      0.04383      7.90494      2.60186         0.000478      0.000496      0.000259
      5.30107      7.90494      2.68445         0.000478      0.000496      0.000259
 -----------------------------------------------------------------------------------
    total drift:                                0.000000     -0.027904      0.000297


--------------------------------------------------------------------------------------------------------



  FREE ENERGIE OF THE ION-ELECTRON SYSTEM (eV)
  ---------------------------------------------------
  free  energy   TOTEN  =      -328.01868567 eV

  energy  without entropy=     -328.01868567  energy(sigma->0) =     -328.01868567
 


--------------------------------------------------------------------------------------------------------


    POTLOK:  cpu time    0.1427: real time    0.1434


--------------------------------------------------------------------------------------------------------


 writing wavefunctions
     LOOP+:  cpu time 2950.2304: real time 2971.1882
    4ORBIT:  cpu time    0.0000: real time    0.0000
 


 total charge     
 
# of ion       s       p       d       tot
------------------------------------------
    1        1.314   2.410   0.000   3.723
    2        1.314   2.410   0.000   3.723
    3        1.314   2.410   0.000   3.723
    4        1.314   2.410   0.000   3.723
    5        1.314   2.410   0.000   3.723
    6        1.314   2.410   0.000   3.723
    7        1.314   2.410   0.000   3.723
    8        1.314   2.410   0.000   3.723
    9        1.314   2.408   0.000   3.722
   10        1.314   2.408   0.000   3.722
   11        1.314   2.408   0.000   3.722
   12        1.314   2.408   0.000   3.722
   13        1.313   2.412   0.000   3.724
   14        1.313   2.412   0.000   3.724
   15        1.313   2.412   0.000   3.724
   16        1.313   2.412   0.000   3.724
   17        1.314   2.410   0.000   3.723
   18        1.314   2.410   0.000   3.723
   19        1.314   2.410   0.000   3.723
   20        1.314   2.410   0.000   3.723
   21        1.314   2.410   0.000   3.723
   22        1.314   2.410   0.000   3.723
   23        1.314   2.410   0.000   3.723
   24        1.314   2.410   0.000   3.723
   25        1.314   2.408   0.000   3.722
   26        1.314   2.408   0.000   3.722
   27        1.314   2.408   0.000   3.722
   28        1.314   2.408   0.000   3.722
   29        1.313   2.412   0.000   3.724
   30        1.313   2.412   0.000   3.724
   31        1.313   2.412   0.000   3.724
   32        1.313   2.412   0.000   3.724
   33        0.259   6.202   8.917  15.378
   34        0.259   6.202   8.917  15.378
   35        0.259   6.202   8.917  15.378
   36        0.259   6.202   8.917  15.378
   37        0.259   6.202   8.917  15.378
   38        0.259   6.202   8.917  15.378
   39        0.259   6.202   8.917  15.378
   40        0.259   6.202   8.917  15.378
   41        0.259   6.202   8.917  15.378
   42        0.259   6.202   8.917  15.378
   43        0.259   6.202   8.917  15.378
   44        0.259   6.202   8.917  15.378
   45        0.259   6.202   8.917  15.378
   46        0.259   6.202   8.917  15.378
   47        0.259   6.202   8.917  15.378
   48        0.259   6.202   8.917  15.378
   49        0.350   6.350   5.820  12.521
   50        0.350   6.350   5.820  12.521
   51        0.350   6.350   5.820  12.521
   52        0.350   6.350   5.820  12.521
   53        0.350   6.350   5.820  12.521
   54        0.350   6.350   5.820  12.521
   55        0.350   6.350   5.820  12.521
   56        0.350   6.350   5.820  12.521
   57        0.350   6.350   5.820  12.521
   58        0.350   6.350   5.820  12.521
   59        0.350   6.350   5.820  12.521
   60        0.350   6.350   5.820  12.521
   61        0.350   6.350   5.820  12.521
   62        0.350   6.350   5.820  12.521
   63        0.350   6.350   5.820  12.521
   64        0.350   6.350   5.820  12.521
--------------------------------------------------
tot         51.786 277.957 235.784 565.528
 


 magnetization (x)
 
# of ion       s       p       d       tot
------------------------------------------
    1       -0.000  -0.007   0.000  -0.008
    2       -0.000  -0.007   0.000  -0.008
    3       -0.000  -0.007   0.000  -0.008
    4       -0.000  -0.007   0.000  -0.008
    5        0.000   0.007   0.000   0.008
    6        0.000   0.007   0.000   0.008
    7        0.000   0.007   0.000   0.008
    8        0.000   0.007   0.000   0.008
    9        0.000  -0.000   0.000  -0.000
   10       -0.000   0.000   0.000   0.000
   11        0.000  -0.000   0.000  -0.000
   12       -0.000   0.000   0.000   0.000
   13        0.000   0.000   0.000   0.000
   14        0.000  -0.000   0.000  -0.000
   15       -0.000   0.000   0.000   0.000
   16        0.000  -0.000   0.000  -0.000
   17        0.000   0.007   0.000   0.008
   18        0.000   0.007   0.000   0.008
   19        0.000   0.007   0.000   0.008
   20        0.000   0.007   0.000   0.008
   21       -0.000  -0.007   0.000  -0.008
   22       -0.000  -0.007   0.000  -0.008
   23       -0.000  -0.007   0.000  -0.008
   24       -0.000  -0.007   0.000  -0.008
   25       -0.000  -0.000   0.000  -0.000
   26       -0.000   0.000   0.000   0.000
   27       -0.000  -0.000   0.000  -0.000
   28       -0.000   0.000   0.000   0.000
   29       -0.000   0.000   0.000   0.000
   30        0.000  -0.000   0.000  -0.000
   31       -0.000   0.000   0.000   0.000
   32        0.000  -0.000   0.000  -0.000
   33        0.000   0.001  -0.001  -0.000
   34        0.000   0.001  -0.001  -0.000
   35        0.000   0.001  -0.001  -0.000
   36        0.000   0.001  -0.001  -0.000
   37       -0.000  -0.001   0.001   0.000
   38       -0.000  -0.001   0.001   0.000
   39       -0.000  -0.001   0.001   0.000
   40       -0.000  -0.001   0.001   0.000
   41        0.000   0.001  -0.001  -0.000
   42        0.000   0.001  -0.001  -0.000
   43        0.000   0.001  -0.001  -0.000
   44        0.000   0.001  -0.001  -0.000
   45       -0.000  -0.001   0.001   0.000
   46       -0.000  -0.001   0.001   0.000
   47       -0.000  -0.001   0.001   0.000
   48       -0.000  -0.001   0.001   0.000
   49        0.020   0.054   3.671   3.744
   50        0.020   0.054   3.671   3.744
   51        0.020   0.054   3.671   3.744
   52        0.020   0.054   3.671   3.744
   53       -0.020  -0.054  -3.671  -3.744
   54       -0.020  -0.054  -3.671  -3.744
   55       -0.020  -0.054  -3.671  -3.744
   56       -0.020  -0.054  -3.671  -3.744
   57        0.020   0.054   3.671   3.744
   58        0.020   0.054   3.671   3.744
   59        0.020   0.054   3.671   3.744
   60        0.020   0.054   3.671   3.744
   61       -0.020  -0.054  -3.671  -3.744
   62       -0.020  -0.054  -3.671  -3.744
   63       -0.020  -0.054  -3.671  -3.744
   64       -0.020  -0.054  -3.671  -3.744
--------------------------------------------------
tot         -0.000   0.000  -0.000   0.000
 
 BZINTS: Fermi energy:  4.969500;688.000000 electrons
         Band energy:***********;  BLOECHL correction:  0.000000

 total amount of memory used by VASP MPI-rank0   349631. kBytes
=======================================================================

   base      :      30000. kBytes
   nonl-proj :     217907. kBytes
   fftplans  :       4588. kBytes
   grid      :      69719. kBytes
   one-center:       1990. kBytes
   wavefun   :      25427. kBytes
 
  
  
 General timing and accounting informations for this job:
 ========================================================
  
                  Total CPU time used (sec):     3009.472
                            User time (sec):     2998.151
                          System time (sec):       11.321
                         Elapsed time (sec):     3031.666
  
                   Maximum memory used (kb):      710492.
                   Average memory used (kb):           0.
  
                          Minor page faults:       541903
                          Major page faults:         5642
                 Voluntary context switches:         7043
