       N       E                     dE             d eps       ncg     rms          rms(c)
DAV:   1    -0.298448823970E+03   -0.29845E+03   -0.17674E+03 18944   0.243E+02    0.416E+01
DAV:   2    -0.327780928708E+03   -0.29332E+02   -0.29411E+02 13824   0.272E+01    0.170E+01
DAV:   3    -0.328095001681E+03   -0.31407E+00   -0.53657E+00 18688   0.508E+00    0.127E+01
DAV:   4    -0.328079378515E+03    0.15623E-01   -0.75712E-01 14080   0.240E+00    0.106E+01
DAV:   5    -0.328080110195E+03   -0.73168E-03   -0.47706E-02 16128   0.629E-01    0.913E+00
DAV:   6    -0.328079685575E+03    0.42462E-03   -0.37345E-03 15360   0.160E-01    0.736E+00
DAV:   7    -0.328077401366E+03    0.22842E-02   -0.77613E-03 16896   0.267E-01    0.152E+00
DAV:   8    -0.328077426731E+03   -0.25365E-04   -0.32775E-04 13312   0.413E-02    0.102E+00
DAV:   9    -0.328077409389E+03    0.17342E-04   -0.24793E-05 17920   0.115E-02    0.914E-01
DAV:  10    -0.328077359918E+03    0.49471E-04   -0.40355E-04 13824   0.448E-02    0.417E-02
DAV:  11    -0.328077361336E+03   -0.14180E-05   -0.11433E-05 14592   0.593E-03    0.116E-02
DAV:  12    -0.328077361786E+03   -0.44947E-06   -0.10240E-06 19968   0.184E-03    0.401E-02
DAV:  13    -0.328077362502E+03   -0.71630E-06   -0.12501E-06 15360   0.200E-03    0.344E-02
DAV:  14    -0.328077362917E+03   -0.41490E-06   -0.16604E-07 14848   0.681E-04    0.134E-02
DAV:  15    -0.328077363124E+03   -0.20744E-06   -0.18173E-07 13824   0.462E-04    0.823E-03
DAV:  16    -0.328077363191E+03   -0.67113E-07   -0.10340E-07 15616   0.429E-04    0.218E-03
DAV:  17    -0.328077363209E+03   -0.17841E-07   -0.83399E-09 11264   0.137E-04    0.811E-04
DAV:  18    -0.328077363218E+03   -0.91386E-08   -0.21028E-09 10752   0.813E-05
   1 F= -.32807736E+03 E0= -.32807736E+03  d E =-.116949E-31  mag=     0.0000
