 vasp.5.4.4.18Apr17-6-g9f103f2a35 (build Oct 30 2023 17:30:16) complex          
  
 executed on             LinuxIFC date 2024.06.29  18:54:07
 running on  256 total cores
 distrk:  each k-point on  256 cores,    1 groups
 distr:  one band on NCORES_PER_BAND=   1 cores,  256 groups


--------------------------------------------------------------------------------------------------------


 INCAR:
 POTCAR:    PAW_PBE S 06Sep2000                   
 POTCAR:     PAW_PBE Cu_pv 06Sep2000              
 POTCAR:     PAW_PBE Fe_pv 02Aug2007              

 ----------------------------------------------------------------------------- 
|                                                                             |
|           W    W    AA    RRRRR   N    N  II  N    N   GGGG   !!!           |
|           W    W   A  A   R    R  NN   N  II  NN   N  G    G  !!!           |
|           W    W  A    A  R    R  N N  N  II  N N  N  G       !!!           |
|           W WW W  AAAAAA  RRRRR   N  N N  II  N  N N  G  GGG   !            |
|           WW  WW  A    A  R   R   N   NN  II  N   NN  G    G                |
|           W    W  A    A  R    R  N    N  II  N    N   GGGG   !!!           |
|                                                                             |
|      For optimal performance we recommend to set                            |
|        NCORE= 4 - approx SQRT( number of cores)                             |
|      NCORE specifies how many cores store one orbital (NPAR=cpu/NCORE).     |
|      This setting can  greatly improve the performance of VASP for DFT.     |
|      The default,   NCORE=1            might be grossly inefficient         |
|      on modern multi-core architectures or massively parallel machines.     |
|      Do your own testing !!!!                                               |
|      Unfortunately you need to use the default for GW and RPA calculations. |
|      (for HF NCORE is supported but not extensively tested yet)             |
|                                                                             |
 ----------------------------------------------------------------------------- 

 POTCAR:    PAW_PBE S 06Sep2000                   
   SHA256 =  0fc7481fb0695f01bdc6462160264c5c84044ae9ec85a907d398b887a2bc3132 S/
   COPYR  = (c) Copyright 06Sep2000 Georg Kresse                                
   COPYR  = This file is part of the software VASP. Any use, copying, and all ot
   COPYR  = If you do not have a valid VASP license, you may not use, copy or di
   VRHFIN =S : s2p4                                                             
   LEXCH  = PE                                                                  
   EATOM  =   276.8230 eV,   20.3459 Ry                                         
                                                                                
   TITEL  = PAW_PBE S 06Sep2000                                                 
   LULTRA =        F    use ultrasoft PP ?                                      
   IUNSCR =        1    unscreen: 0-lin 1-nonlin 2-no                           
   RPACOR =    1.500    partial core radius                                     
   POMASS =   32.066; ZVAL   =    6.000    mass and valenz                      
   RCORE  =    1.900    outmost cutoff radius                                   
   RWIGS  =    2.200; RWIGS  =    1.164    wigner-seitz radius (au A)           
   ENMAX  =  258.689; ENMIN  =  194.016 eV                                      
   ICORE  =        2    local potential                                         
   LCOR   =        T    correct aug charges                                     
   LPAW   =        T    paw PP                                                  
   EAUG   =  335.092                                                            
   DEXC   =    0.000                                                            
   RMAX   =    1.942    core radius for proj-oper                               
   RAUG   =    1.300    factor for augmentation sphere                          
   RDEP   =    1.954    radius for radial grids                                 
   RDEPT  =    1.744    core radius for aug-charge                              
                                                                                
   Atomic configuration                                                         
    6 entries                                                                   
     n  l   j            E        occ.                                          
     1  0  0.50     -2405.8406   2.0000                                         
     2  0  0.50      -211.7007   2.0000                                         
     2  1  1.50      -156.4958   6.0000                                         
     3  0  0.50       -17.2562   2.0000                                         
     3  1  0.50        -7.0085   4.0000                                         
     3  2  1.50        -6.8029   0.0000                                         
   Description                                                                  
     l       E           TYP  RCUT    TYP  RCUT                                 
     0    -17.2561641     23  1.900                                             
     0    -15.8743224     23  1.900                                             
     1     -7.0085400     23  1.900                                             
     1     -2.7779785     23  1.900                                             
     2     -6.8029130     23  1.900                                             
  local pseudopotential read in
  partial core-charges read in
  partial kinetic energy density read in
  atomic valenz-charges read in
  non local Contribution for L=           0  read in
    real space projection operators read in
  non local Contribution for L=           0  read in
    real space projection operators read in
  non local Contribution for L=           1  read in
    real space projection operators read in
  non local Contribution for L=           1  read in
    real space projection operators read in
    PAW grid and wavefunctions read in
 
   number of l-projection  operators is LMAX  =           4
   number of lm-projection operators is LMMAX =           8
 
 POTCAR:     PAW_PBE Cu_pv 06Sep2000              
   SHA256 =  cb7b504e2ea725fe1f25c85a9ac77d4012ce94cd394135b722c4e25ec297f1cb Cu
   COPYR  = (c) Copyright 06Sep2000 Georg Kresse                                
   COPYR  = This file is part of the software VASP. Any use, copying, and all ot
   COPYR  = If you do not have a valid VASP license, you may not use, copy or di
   VRHFIN =Cu: d10 p1                                                           
   LEXCH  = PE                                                                  
   EATOM  =  4120.1201 eV,  302.8203 Ry                                         
                                                                                
   TITEL  = PAW_PBE Cu_pv 06Sep2000                                             
   LULTRA =        F    use ultrasoft PP ?                                      
   IUNSCR =        1    unscreen: 0-lin 1-nonlin 2-no                           
   RPACOR =    1.500    partial core radius                                     
   POMASS =   63.546; ZVAL   =   17.000    mass and valenz                      
   RCORE  =    2.000    outmost cutoff radius                                   
   RWIGS  =    2.000; RWIGS  =    1.058    wigner-seitz radius (au A)           
   ENMAX  =  368.648; ENMIN  =  276.486 eV                                      
   RCLOC  =    1.304    cutoff for local pot                                    
   LCOR   =        T    correct aug charges                                     
   LPAW   =        T    paw PP                                                  
   EAUG   =  758.233                                                            
   DEXC   =    0.000                                                            
   RMAX   =    2.046    core radius for proj-oper                               
   RAUG   =    1.300    factor for augmentation sphere                          
   RDEP   =    2.025    radius for radial grids                                 
   RDEPT  =    1.558    core radius for aug-charge                              
                                                                                
   Atomic configuration                                                         
    8 entries                                                                   
     n  l   j            E        occ.                                          
     1  0  0.50     -8850.2467   2.0000                                         
     2  0  0.50     -1062.3498   2.0000                                         
     2  1  1.50      -916.8226   6.0000                                         
     3  0  0.50      -114.6929   2.0000                                         
     3  1  1.50       -72.1325   6.0000                                         
     3  2  2.50        -5.0394  10.0000                                         
     4  0  0.50        -4.6097   1.0000                                         
     4  3  2.50        -1.3606   0.0000                                         
   Description                                                                  
     l       E           TYP  RCUT    TYP  RCUT                                 
     1    -72.1324777     23  1.700                                             
     1     -1.3605826     23  1.700                                             
     2     -5.0393776     23  2.000                                             
     2     -6.3999602     23  2.000                                             
     0     -4.6097062     23  1.800                                             
     0     14.1620818     23  1.800                                             
  local pseudopotential read in
  partial core-charges read in
  partial kinetic energy density read in
  atomic valenz-charges read in
  non local Contribution for L=           1  read in
    real space projection operators read in
  non local Contribution for L=           1  read in
    real space projection operators read in
  non local Contribution for L=           2  read in
    real space projection operators read in
  non local Contribution for L=           2  read in
    real space projection operators read in
  non local Contribution for L=           0  read in
    real space projection operators read in
  non local Contribution for L=           0  read in
    real space projection operators read in
    PAW grid and wavefunctions read in
 
   number of l-projection  operators is LMAX  =           6
   number of lm-projection operators is LMMAX =          18
 
 POTCAR:     PAW_PBE Fe_pv 02Aug2007              
   SHA256 =  5d22e414b1f82158bf2c7ecb8b97b28fd0923e48cadc1c3bf74d524558f5dd32 Fe
   COPYR  = (c) Copyright 02Aug2007 Georg Kresse                                
   COPYR  = This file is part of the software VASP. Any use, copying, and all ot
   COPYR  = If you do not have a valid VASP license, you may not use, copy or di
   VRHFIN =Fe:  3pd7s1                                                          
   LEXCH  = PE                                                                  
   EATOM  =  2457.4239 eV,  180.6156 Ry                                         
                                                                                
   TITEL  = PAW_PBE Fe_pv 02Aug2007                                             
   LULTRA =        F    use ultrasoft PP ?                                      
   IUNSCR =        1    unscreen: 0-lin 1-nonlin 2-no                           
   RPACOR =    1.750    partial core radius                                     
   POMASS =   55.847; ZVAL   =   14.000    mass and valenz                      
   RCORE  =    2.200    outmost cutoff radius                                   
   RWIGS  =    2.200; RWIGS  =    1.164    wigner-seitz radius (au A)           
   ENMAX  =  293.238; ENMIN  =  219.928 eV                                      
   ICORE  =        3    local potential                                         
   LCOR   =        T    correct aug charges                                     
   LPAW   =        T    paw PP                                                  
   EAUG   =  578.342                                                            
   DEXC   =    0.000                                                            
   RMAX   =    2.249    core radius for proj-oper                               
   RAUG   =    1.300    factor for augmentation sphere                          
   RDEP   =    2.296    radius for radial grids                                 
   RDEPT  =    1.766    core radius for aug-charge                              
                                                                                
   Atomic configuration                                                         
    8 entries                                                                   
     n  l   j            E        occ.                                          
     1  0  0.50     -6993.8440   2.0000                                         
     2  0  0.50      -814.6047   2.0000                                         
     2  1  1.50      -693.3689   6.0000                                         
     3  0  0.50       -89.4732   2.0000                                         
     3  1  1.50       -55.6373   6.0000                                         
     3  2  2.50        -3.8151   7.0000                                         
     4  0  0.50        -4.2551   1.0000                                         
     4  3  2.50        -1.3606   0.0000                                         
   Description                                                                  
     l       E           TYP  RCUT    TYP  RCUT                                 
     1    -55.6372668     23  2.000                                             
     1     -5.4423304     23  2.000                                             
     2     -3.8151096     23  2.200                                             
     2     -5.1756922     23  2.200                                             
     0     -4.2550951     23  2.200                                             
     0     27.2116520     23  2.200                                             
     3     -1.3605826     23  2.200                                             
  local pseudopotential read in
  partial core-charges read in
  partial kinetic energy density read in
  atomic valenz-charges read in
  non local Contribution for L=           1  read in
    real space projection operators read in
  non local Contribution for L=           1  read in
    real space projection operators read in
  non local Contribution for L=           2  read in
    real space projection operators read in
  non local Contribution for L=           2  read in
    real space projection operators read in
  non local Contribution for L=           0  read in
    real space projection operators read in
  non local Contribution for L=           0  read in
    real space projection operators read in
    PAW grid and wavefunctions read in
 
   number of l-projection  operators is LMAX  =           6
   number of lm-projection operators is LMMAX =          18
 

 ----------------------------------------------------------------------------- 
|                                                                             |
|  ADVICE TO THIS USER RUNNING 'VASP/VAMP'   (HEAR YOUR MASTER'S VOICE ...):  |
|                                                                             |
|      You have a (more or less) 'large supercell' and for larger cells       |
|      it might be more efficient to use real space projection opertators     |
|      So try LREAL= Auto  in the INCAR   file.                               |
|      Mind:          For very  accurate calculation you might also keep the  |
|      reciprocal projection scheme          (i.e. LREAL=.FALSE.)             |
|                                                                             |
 ----------------------------------------------------------------------------- 


 ----------------------------------------------------------------------------- 
|                                                                             |
|  ADVICE TO THIS USER RUNNING 'VASP/VAMP'   (HEAR YOUR MASTER'S VOICE ...):  |
|                                                                             |
|      You enforced a specific xc-type in the INCAR file,                     |
|      a different type was found on the POTCAR file                          |
|          I HOPE YOU KNOW, WHAT YOU ARE  DOING                               |
|                                                                             |
 ----------------------------------------------------------------------------- 

  PAW_PBE S 06Sep2000                   :
 energy of atom  1       EATOM= -276.8230
 kinetic energy error for atom=    0.0007 (will be added to EATOM!!)
   PAW_PBE Cu_pv 06Sep2000              :
 energy of atom  2       EATOM=-4120.1201
 kinetic energy error for atom=    0.0094 (will be added to EATOM!!)
   PAW_PBE Fe_pv 02Aug2007              :
 energy of atom  3       EATOM=-2457.4239
 kinetic energy error for atom=    0.0025 (will be added to EATOM!!)
 
 
 POSCAR: Fe16 Cu16 S32                           
  positions in direct lattice
  No initial velocities read in
 exchange correlation table for  LEXCH =       14
   RHO(1)=    0.500       N(1)  =     2000
   RHO(2)=  100.500       N(2)  =     4000
 


--------------------------------------------------------------------------------------------------------


 ion  position               nearest neighbor table
   1  0.126  0.125  0.124-  37 2.26  41 2.26  61 2.27  49 2.28
   2  0.626  0.125  0.124-  38 2.26  42 2.26  62 2.27  50 2.28
   3  0.126  0.625  0.124-  39 2.26  43 2.26  63 2.27  51 2.28
   4  0.626  0.625  0.124-  40 2.26  44 2.26  64 2.27  52 2.28
   5  0.374  0.375  0.124-  39 2.26  41 2.26  62 2.27  52 2.28
   6  0.874  0.375  0.124-  40 2.26  42 2.26  61 2.27  51 2.28
   7  0.374  0.875  0.124-  37 2.26  43 2.26  64 2.27  50 2.28
   8  0.874  0.875  0.124-  38 2.26  44 2.26  63 2.27  49 2.28
   9  0.125  0.374  0.874-  41 2.26  45 2.26  51 2.27  55 2.28
  10  0.625  0.374  0.874-  42 2.26  46 2.26  52 2.27  56 2.28
  11  0.125  0.874  0.874-  43 2.26  47 2.26  49 2.27  53 2.28
  12  0.625  0.874  0.874-  44 2.26  48 2.26  50 2.27  54 2.28
  13  0.375  0.126  0.874-  41 2.26  46 2.26  50 2.27  53 2.28
  14  0.875  0.126  0.874-  42 2.26  45 2.26  49 2.27  54 2.28
  15  0.375  0.626  0.874-  43 2.26  48 2.26  52 2.27  55 2.28
  16  0.875  0.626  0.874-  44 2.26  47 2.26  51 2.27  56 2.28
  17  0.124  0.125  0.624-  45 2.26  33 2.26  53 2.27  57 2.28
  18  0.624  0.125  0.624-  46 2.26  34 2.26  54 2.27  58 2.28
  19  0.124  0.625  0.624-  47 2.26  35 2.26  55 2.27  59 2.28
  20  0.624  0.625  0.624-  48 2.26  36 2.26  56 2.27  60 2.28
  21  0.376  0.375  0.624-  46 2.26  36 2.26  55 2.27  57 2.28
  22  0.876  0.375  0.624-  45 2.26  35 2.26  56 2.27  58 2.28
  23  0.376  0.875  0.624-  48 2.26  34 2.26  53 2.27  59 2.28
  24  0.876  0.875  0.624-  47 2.26  33 2.26  54 2.27  60 2.28
  25  0.375  0.124  0.374-  34 2.26  37 2.26  57 2.27  62 2.28
  26  0.875  0.124  0.374-  33 2.26  38 2.26  58 2.27  61 2.28
  27  0.375  0.624  0.374-  36 2.26  39 2.26  59 2.27  64 2.28
  28  0.875  0.624  0.374-  35 2.26  40 2.26  60 2.27  63 2.28
  29  0.125  0.376  0.374-  35 2.26  39 2.26  57 2.27  61 2.28
  30  0.625  0.376  0.374-  36 2.26  40 2.26  58 2.27  62 2.28
  31  0.125  0.876  0.374-  33 2.26  37 2.26  59 2.27  63 2.28
  32  0.625  0.876  0.374-  34 2.26  38 2.26  60 2.27  64 2.28
  33  0.000  0.000  0.501-  26 2.26  31 2.26  17 2.26  24 2.26
  34  0.500  0.000  0.501-  25 2.26  32 2.26  18 2.26  23 2.26
  35  0.000  0.500  0.501-  28 2.26  29 2.26  19 2.26  22 2.26
  36  0.500  0.500  0.501-  27 2.26  30 2.26  20 2.26  21 2.26
  37  0.250  0.000  0.251-   1 2.26   7 2.26  25 2.26  31 2.26
  38  0.750  0.000  0.251-   2 2.26   8 2.26  26 2.26  32 2.26
  39  0.250  0.500  0.251-   3 2.26   5 2.26  27 2.26  29 2.26
  40  0.750  0.500  0.251-   4 2.26   6 2.26  28 2.26  30 2.26
  41  0.250  0.250  0.001-   9 2.26  13 2.26   1 2.26   5 2.26
  42  0.750  0.250  0.001-  10 2.26  14 2.26   2 2.26   6 2.26
  43  0.250  0.750  0.001-  11 2.26  15 2.26   3 2.26   7 2.26
  44  0.750  0.750  0.001-  12 2.26  16 2.26   4 2.26   8 2.26
  45  0.000  0.250  0.751-  17 2.26  22 2.26   9 2.26  14 2.26
  46  0.500  0.250  0.751-  18 2.26  21 2.26  10 2.26  13 2.26
  47  0.000  0.750  0.751-  19 2.26  24 2.26  11 2.26  16 2.26
  48  0.500  0.750  0.751-  20 2.26  23 2.26  12 2.26  15 2.26
  49  0.000  0.000  0.001-  11 2.27  14 2.27   1 2.28   8 2.28
  50  0.500  0.000  0.001-  12 2.27  13 2.27   2 2.28   7 2.28
  51  0.000  0.500  0.001-   9 2.27  16 2.27   3 2.28   6 2.28
  52  0.500  0.500  0.001-  10 2.27  15 2.27   4 2.28   5 2.28
  53  0.250  0.000  0.751-  17 2.27  23 2.27  11 2.28  13 2.28
  54  0.750  0.000  0.751-  18 2.27  24 2.27  12 2.28  14 2.28
  55  0.250  0.500  0.751-  19 2.27  21 2.27   9 2.28  15 2.28
  56  0.750  0.500  0.751-  20 2.27  22 2.27  10 2.28  16 2.28
  57  0.250  0.250  0.501-  25 2.27  29 2.27  17 2.28  21 2.28
  58  0.750  0.250  0.501-  26 2.27  30 2.27  18 2.28  22 2.28
  59  0.250  0.750  0.501-  27 2.27  31 2.27  19 2.28  23 2.28
  60  0.750  0.750  0.501-  28 2.27  32 2.27  20 2.28  24 2.28
  61  0.000  0.250  0.251-   1 2.27   6 2.27  26 2.28  29 2.28
  62  0.500  0.250  0.251-   2 2.27   5 2.27  25 2.28  30 2.28
  63  0.000  0.750  0.251-   3 2.27   8 2.27  28 2.28  31 2.28
  64  0.500  0.750  0.251-   4 2.27   7 2.27  27 2.28  32 2.28
 
  LATTYP: Found a base centered orthorhombic cell.
 ALAT       =    14.7094473943
 B/A-ratio  =     1.0211482384
 C/A-ratio  =     0.7081807848
  
  Lattice vectors:
  
 A1 = (  10.5111330000,   0.1099830000,   0.0000000000)
 A2 = (  -0.1099830000, -10.5111330000,   0.0000000000)
 A3 = (   0.0000000000,   0.0000000000, -10.4169480000)


Analysis of symmetry for initial positions (statically):
=====================================================================
 Subroutine PRICEL returns following result:
 
  LATTYP: Found a face centered orthorhombic cell.
 ALAT       =     7.3547236971
 B/A-ratio  =     1.0211482384
 C/A-ratio  =     1.4163615696
  
  Lattice vectors:
  
 A1 = (  -2.6552790000,  -2.6552790000,   5.2084740000)
 A2 = (  -2.6002875000,   2.6002875000,   5.2084740000)
 A3 = (  -5.2555665000,  -0.0549915000,   0.0000000000)
 
   8 primitive cells build up your supercell.
 

 Routine SETGRP: Setting up the symmetry group for a 
 base centered orthorhombic supercell.


 Subroutine GETGRP returns: Found  4 space group operations
 (whereof  2 operations were pure point group operations)
 out of a pool of  8 trial point group operations.


The static configuration has the point symmetry C_2 .
 The point group associated with its full space group is C_2v.


Analysis of symmetry for dynamics (positions and initial velocities):
=====================================================================
 Subroutine PRICEL returns following result:
 
  LATTYP: Found a face centered orthorhombic cell.
 ALAT       =     7.3547236971
 B/A-ratio  =     1.0211482384
 C/A-ratio  =     1.4163615696
  
  Lattice vectors:
  
 A1 = (  -2.6552790000,  -2.6552790000,   5.2084740000)
 A2 = (  -2.6002875000,   2.6002875000,   5.2084740000)
 A3 = (  -5.2555665000,  -0.0549915000,   0.0000000000)
 
   8 primitive cells build up your supercell.
 

 Routine SETGRP: Setting up the symmetry group for a 
 base centered orthorhombic supercell.


 Subroutine GETGRP returns: Found  4 space group operations
 (whereof  2 operations were pure point group operations)
 out of a pool of  8 trial point group operations.


The dynamic configuration has the point symmetry C_2 .
 The point group associated with its full space group is C_2v.


Analysis of structural, dynamic, and magnetic symmetry:
=====================================================================
 Subroutine PRICEL returns following result:
 
  LATTYP: Found a face centered orthorhombic cell.
 ALAT       =     7.3547236971
 B/A-ratio  =     1.0211482384
 C/A-ratio  =     1.4163615696
  
  Lattice vectors:
  
 A1 = (  -2.6552790000,  -2.6552790000,   5.2084740000)
 A2 = (  -2.6002875000,   2.6002875000,   5.2084740000)
 A3 = (  -5.2555665000,  -0.0549915000,   0.0000000000)
 
   8 primitive cells build up your supercell.
 

 Routine SETGRP: Setting up the symmetry group for a 
 base centered orthorhombic supercell.


 Subroutine GETGRP returns: Found  4 space group operations
 (whereof  2 operations were pure point group operations)
 out of a pool of  8 trial point group operations.


The magnetic configuration has the point symmetry C_2 .
 The point group associated with its full space group is C_2v.


 Subroutine INISYM returns: Found  4 space group operations
 (whereof  2 operations are pure point group operations),
 and found     8 'primitive' translations

 
 
 KPOINTS: Automatic mesh                          

Automatic generation of k-mesh.
Space group operators:
 irot       det(A)        alpha          n_x          n_y          n_z        tau_x        tau_y        tau_z
    1     1.000000     0.000001     1.000000     0.000000     0.000000     0.000000     0.000000     0.000000
    2     1.000000   179.999999     0.000000     0.000000     1.000000     0.000000     0.000000     0.000000
    3    -1.000000   180.000000     0.707107     0.707107     0.000000    -0.750000    -0.000000     0.750000
    4    -1.000000   180.000000     0.707107    -0.707107     0.000000    -0.750000    -0.000000     0.750000
 
 Subroutine IBZKPT returns following result:
 ===========================================
 
 Found      6 irreducible k-points:
 
 Following reciprocal coordinates:
            Coordinates               Weight
  0.000000  0.000000  0.000000      1.000000
  0.500000  0.000000  0.000000      2.000000
  0.500000  0.500000  0.000000      1.000000
  0.000000  0.000000  0.500000      1.000000
  0.500000  0.000000  0.500000      2.000000
  0.500000  0.500000  0.500000      1.000000
 
 Following cartesian coordinates:
            Coordinates               Weight
  0.000000  0.000000  0.000000      1.000000
  0.047574 -0.000498  0.000000      2.000000
  0.047076  0.047076  0.000000      1.000000
  0.000000  0.000000  0.047999      1.000000
  0.047574 -0.000498  0.047999      2.000000
  0.047076  0.047076  0.047999      1.000000
 
 
 Subroutine IBZKPT_HF returns following result:
 ==============================================
 
 Found      8 k-points in 1st BZ
 the following      8 k-points will be used (e.g. in the exchange kernel)
 Following reciprocal coordinates:   # in IRBZ
  0.000000  0.000000  0.000000    0.12500000   1 t-inv F
  0.500000  0.000000  0.000000    0.12500000   2 t-inv F
  0.500000  0.500000  0.000000    0.12500000   3 t-inv F
  0.000000  0.000000  0.500000    0.12500000   4 t-inv F
  0.500000  0.000000  0.500000    0.12500000   5 t-inv F
  0.500000  0.500000  0.500000    0.12500000   6 t-inv F
 -0.000000 -0.500000  0.000000    0.12500000   2 t-inv F spinflp
 -0.000000 -0.500000  0.500000    0.12500000   5 t-inv F spinflp


--------------------------------------------------------------------------------------------------------




 Dimension of arrays:
   k-points           NKPTS =      6   k-points in BZ     NKDIM =      6   number of bands    NBANDS=    512
   number of dos      NEDOS =    301   number of ions     NIONS =     64
   non local maximal  LDIM  =      6   non local SUM 2l+1 LMDIM =     18
   total plane-waves  NPLWV = 829440
   max r-space proj   IRMAX =      1   max aug-charges    IRDMAX=  22904
   dimension x,y,z NGX =    96 NGY =   96 NGZ =   90
   dimension x,y,z NGXF=   192 NGYF=  192 NGZF=  180
   support grid    NGXF=   192 NGYF=  192 NGZF=  180
   ions per type =              32  16  16
   NGX,Y,Z   is equivalent  to a cutoff of  15.18, 15.18, 14.36 a.u.
   NGXF,Y,Z  is equivalent  to a cutoff of  30.37, 30.37, 28.73 a.u.

 SYSTEM =  CuFeS2                                  
 POSCAR =  Fe16 Cu16 S32                           

 Startparameter for this run:
   NWRITE =      2    write-flag & timer
   PREC   = accura    normal or accurate (medium, high low for compatibility)
   ISTART =      1    job   : 0-new  1-cont  2-samecut
   ICHARG =      1    charge: 1-file 2-atom 10-const
   ISPIN  =      2    spin polarized calculation?
   LNONCOLLINEAR =      F non collinear calculations
   LSORBIT =      F    spin-orbit coupling
   INIWAV =      1    electr: 0-lowe 1-rand  2-diag
   LASPH  =      F    aspherical Exc in radial PAW
   METAGGA=      F    non-selfconsistent MetaGGA calc.

 Electronic Relaxation 1
   ENCUT  =  700.0 eV  51.45 Ry    7.17 a.u.  22.68 22.68 22.47*2*pi/ulx,y,z
   ENINI  =  700.0     initial cutoff
   ENAUG  =  758.2 eV  augmentation charge cutoff
   NELM   =    500;   NELMIN=  2; NELMDL=  0     # of ELM steps 
   EDIFF  = 0.1E-07   stopping-criterion for ELM
   LREAL  =      F    real-space projection
   NLSPLINE    = F    spline interpolate recip. space projectors
   LCOMPAT=      F    compatible to vasp.4.4
   GGA_COMPAT  = T    GGA compatible to vasp.4.4-vasp.4.6
   LMAXPAW     = -100 max onsite density
   LMAXMIX     =    4 max onsite mixed and CHGCAR
   VOSKOWN=      0    Vosko Wilk Nusair interpolation
   ROPT   =    0.00000   0.00000   0.00000
 Ionic relaxation
   EDIFFG = -.1E-04   stopping-criterion for IOM
   NSW    =      0    number of steps for IOM
   NBLOCK =      1;   KBLOCK =      1    inner block; outer block 
   IBRION =     -1    ionic relax: 0-MD 1-quasi-New 2-CG
   NFREE  =      0    steps in history (QN), initial steepest desc. (CG)
   ISIF   =      2    stress and relaxation
   IWAVPR =     10    prediction:  0-non 1-charg 2-wave 3-comb
   ISYM   =      2    0-nonsym 1-usesym 2-fastsym
   LCORR  =      T    Harris-Foulkes like correction to forces

   POTIM  = 0.5000    time-step for ionic-motion
   TEIN   =    0.0    initial temperature
   TEBEG  =    0.0;   TEEND  =   0.0 temperature during run
   SMASS  =  -3.00    Nose mass-parameter (am)
   estimated Nose-frequenzy (Omega)   =  0.10E-29 period in steps =****** mass=  -0.253E-26a.u.
   SCALEE = 1.0000    scale energy and forces
   NPACO  =    256;   APACO  = 16.0  distance and # of slots for P.C.
   PSTRESS=    0.0 pullay stress

  Mass of Ions in am
   POMASS =  32.07 63.55 55.85
  Ionic Valenz
   ZVAL   =   6.00 17.00 14.00
  Atomic Wigner-Seitz radii
   RWIGS  =  -1.00 -1.00 -1.00
  virtual crystal weights 
   VCA    =   1.00  1.00  1.00
   NELECT =     688.0000    total number of electrons
   NUPDOWN=      -1.0000    fix difference up-down

 DOS related values:
   EMIN   =  10.00;   EMAX   =-10.00  energy-range for DOS
   EFERMI =   0.00
   ISMEAR =     0;   SIGMA  =   0.03  broadening in eV -4-tet -1-fermi 0-gaus

 Electronic relaxation 2 (details)
   IALGO  =     38    algorithm
   LDIAG  =      T    sub-space diagonalisation (order eigenvalues)
   LSUBROT=      F    optimize rotation matrix (better conditioning)
   TURBO    =      0    0=normal 1=particle mesh
   IRESTART =      0    0=no restart 2=restart with 2 vectors
   NREBOOT  =      0    no. of reboots
   NMIN     =      0    reboot dimension
   EREF     =   0.00    reference energy to select bands
   IMIX   =      4    mixing-type and parameters
     AMIX     =   0.40;   BMIX     =  1.00
     AMIX_MAG =   1.60;   BMIX_MAG =  1.00
     AMIN     =   0.10
     WC   =   100.;   INIMIX=   1;  MIXPRE=   1;  MAXMIX= -45

 Intra band minimization:
   WEIMIN = 0.0000     energy-eigenvalue tresh-hold
   EBREAK =  0.49E-11  absolut break condition
   DEPER  =   0.30     relativ break condition  

   TIME   =   0.40     timestep for ELM

  volume/ion in A,a.u.               =      17.98       121.34
  Fermi-wavevector in a.u.,A,eV,Ry     =   1.379136  2.606188 25.878486  1.902015
  Thomas-Fermi vector in A             =   2.504133
 
 Write flags
   LWAVE        =      T    write WAVECAR
   LDOWNSAMPLE  =      F    k-point downsampling of WAVECAR
   LCHARG       =      T    write CHGCAR
   LVTOT        =      F    write LOCPOT, total local potential
   LVHAR        =      F    write LOCPOT, Hartree potential only
   LELF         =      F    write electronic localiz. function (ELF)
   LORBIT       =     11    0 simple, 1 ext, 2 COOP (PROOUT), +10 PAW based schemes


 Dipole corrections
   LMONO  =      F    monopole corrections only (constant potential shift)
   LDIPOL =      F    correct potential (dipole corrections)
   IDIPOL =      0    1-x, 2-y, 3-z, 4-all directions 
   EPSILON=  1.0000000 bulk dielectric constant

 LDA+U is selected, type is set to LDAUTYPE =  2
   angular momentum for each species LDAUL =     2    2    2
   U (eV)           for each species LDAUU =   0.0  0.1  4.7
   J (eV)           for each species LDAUJ =   0.0  0.0  0.0
 Exchange correlation treatment:
   GGA     =    PS    GGA type
   LEXCH   =    14    internal setting for exchange type
   VOSKOWN=      0    Vosko Wilk Nusair interpolation
   LHFCALC =     F    Hartree Fock is set to
   LHFONE  =     F    Hartree Fock one center treatment
   AEXX    =    0.0000 exact exchange contribution

 Linear response parameters
   LEPSILON=     F    determine dielectric tensor
   LRPA    =     F    only Hartree local field effects (RPA)
   LNABLA  =     F    use nabla operator in PAW spheres
   LVEL    =     F    velocity operator in full k-point grid
   LINTERFAST=   F  fast interpolation
   KINTER  =     0    interpolate to denser k-point grid
   CSHIFT  =0.1000    complex shift for real part using Kramers Kronig
   OMEGAMAX=  -1.0    maximum frequency
   DEG_THRESHOLD= 0.2000000E-02 threshold for treating states as degnerate
   RTIME   =   -0.100 relaxation time in fs
  (WPLASMAI=    0.000 imaginary part of plasma frequency in eV, 0.658/RTIME)
   DFIELD  = 0.0000000 0.0000000 0.0000000 field for delta impulse in time
 
 Orbital magnetization related:
   ORBITALMAG=     F  switch on orbital magnetization
   LCHIMAG   =     F  perturbation theory with respect to B field
   DQ        =  0.001000  dq finite difference perturbation B field
   LLRAUG    =     F  two centre corrections for induced B field

 PEAD related settings:
   LPEAD      =     T    switch on PEAD
   IPEAD      =     4    finite difference order for dpsi/dk
   LCALCPOL   =     T    calculate macroscopic polarization
   LCALCEPS   =     F    calculate dielectric tensor
   EFIELD_PEAD=    0.0000    0.0000    0.0000
   SKIP_EDOTP =     F
   LRPA       =     F
   SKIP_SCF   =     F


--------------------------------------------------------------------------------------------------------


 Static calculation
 charge density and potential will be updated during run
 spin polarized calculation
 Variant of blocked Davidson
 Davidson routine will perform the subspace rotation
 perform sub-space diagonalisation
    after iterative eigenvector-optimisation
 modified Broyden-mixing scheme, WC =      100.0
 initial mixing is a Kerker type mixing with AMIX =  0.4000 and BMIX =      1.0000
 Hartree-type preconditioning will be used
 using additional bands          168
 reciprocal scheme for non local part
 use partial core corrections
 calculate Harris-corrections to forces 
   (improved forces if not selfconsistent)
 use gradient corrections 
 use of overlap-Matrix (Vanderbilt PP)
 Gauss-broadening in eV      SIGMA  =   0.03


--------------------------------------------------------------------------------------------------------


  energy-cutoff  :      700.00
  volume of cell :     1150.78
      direct lattice vectors                 reciprocal lattice vectors
    10.511133000  0.109983000  0.000000000     0.095147640 -0.000995575  0.000000000
     0.109983000 10.511133000  0.000000000    -0.000995575  0.095147640  0.000000000
     0.000000000  0.000000000 10.416948000     0.000000000  0.000000000  0.095997407

  length of vectors
    10.511708387 10.511708387 10.416948000     0.095152848  0.095152848  0.095997407


 
 old parameters found on file WAVECAR:
  energy-cutoff  :      700.00
  volume of cell :     1150.78
      direct lattice vectors                 reciprocal lattice vectors
    10.511133000  0.109983000  0.000000000     0.095147640 -0.000995575  0.000000000
     0.109983000 10.511133000  0.000000000    -0.000995575  0.095147640  0.000000000
     0.000000000  0.000000000 10.416948000     0.000000000  0.000000000  0.095997407

  length of vectors

 
 k-points in units of 2pi/SCALE and weight: Automatic mesh                          
   0.00000000  0.00000000  0.00000000       0.125
   0.04757382 -0.00049779  0.00000000       0.250
   0.04707603  0.04707603  0.00000000       0.125
   0.00000000  0.00000000  0.04799870       0.125
   0.04757382 -0.00049779  0.04799870       0.250
   0.04707603  0.04707603  0.04799870       0.125
 
 k-points in reciprocal lattice and weights: Automatic mesh                          
   0.00000000  0.00000000  0.00000000       0.125
   0.50000000  0.00000000  0.00000000       0.250
   0.50000000  0.50000000  0.00000000       0.125
   0.00000000  0.00000000  0.50000000       0.125
   0.50000000  0.00000000  0.50000000       0.250
   0.50000000  0.50000000  0.50000000       0.125
 
 position of ions in fractional coordinates (direct lattice) 
   0.12615000  0.12513300  0.12383200
   0.62615000  0.12513300  0.12383200
   0.12615000  0.62513300  0.12383200
   0.62615000  0.62513300  0.12383200
   0.37385000  0.37486700  0.12383200
   0.87385000  0.37486700  0.12383200
   0.37385000  0.87486700  0.12383200
   0.87385000  0.87486700  0.12383200
   0.12486700  0.37385000  0.87383200
   0.62486700  0.37385000  0.87383200
   0.12486700  0.87385000  0.87383200
   0.62486700  0.87385000  0.87383200
   0.37513300  0.12615000  0.87383200
   0.87513300  0.12615000  0.87383200
   0.37513300  0.62615000  0.87383200
   0.87513300  0.62615000  0.87383200
   0.12385000  0.12486700  0.62383200
   0.62385000  0.12486700  0.62383200
   0.12385000  0.62486700  0.62383200
   0.62385000  0.62486700  0.62383200
   0.37615000  0.37513300  0.62383200
   0.87615000  0.37513300  0.62383200
   0.37615000  0.87513300  0.62383200
   0.87615000  0.87513300  0.62383200
   0.37486700  0.12385000  0.37383200
   0.87486700  0.12385000  0.37383200
   0.37486700  0.62385000  0.37383200
   0.87486700  0.62385000  0.37383200
   0.12513300  0.37615000  0.37383200
   0.62513300  0.37615000  0.37383200
   0.12513300  0.87615000  0.37383200
   0.62513300  0.87615000  0.37383200
   0.00000000  0.00000000  0.50099500
   0.50000000  0.00000000  0.50099500
   0.00000000  0.50000000  0.50099500
   0.50000000  0.50000000  0.50099500
   0.25000000  0.00000000  0.25099500
   0.75000000  0.00000000  0.25099500
   0.25000000  0.50000000  0.25099500
   0.75000000  0.50000000  0.25099500
   0.25000000  0.25000000  0.00099500
   0.75000000  0.25000000  0.00099500
   0.25000000  0.75000000  0.00099500
   0.75000000  0.75000000  0.00099500
   0.00000000  0.25000000  0.75099500
   0.50000000  0.25000000  0.75099500
   0.00000000  0.75000000  0.75099500
   0.50000000  0.75000000  0.75099500
   0.00000000  0.00000000  0.00134100
   0.50000000  0.00000000  0.00134100
   0.00000000  0.50000000  0.00134100
   0.50000000  0.50000000  0.00134100
   0.25000000  0.00000000  0.75134100
   0.75000000  0.00000000  0.75134100
   0.25000000  0.50000000  0.75134100
   0.75000000  0.50000000  0.75134100
   0.25000000  0.25000000  0.50134100
   0.75000000  0.25000000  0.50134100
   0.25000000  0.75000000  0.50134100
   0.75000000  0.75000000  0.50134100
   0.00000000  0.25000000  0.25134100
   0.50000000  0.25000000  0.25134100
   0.00000000  0.75000000  0.25134100
   0.50000000  0.75000000  0.25134100
 
 position of ions in cartesian coordinates  (Angst):
   1.33974193  1.32916396  1.28995150
   6.59530843  1.38415546  1.28995150
   1.39473343  6.58473046  1.28995150
   6.65029993  6.63972196  1.28995150
   3.97081607  3.98139404  1.28995150
   9.22638257  4.03638554  1.28995150
   4.02580757  9.23696054  1.28995150
   9.28137407  9.29195204  1.28995150
   1.35361079  3.94332032  9.10266250
   6.60917729  3.99831182  9.10266250
   1.40860229  9.19888682  9.10266250
   6.66416879  9.25387832  9.10266250
   3.95694721  1.36723768  9.10266250
   9.21251371  1.42222918  9.10266250
   4.01193871  6.62280418  9.10266250
   9.26750521  6.67779568  9.10266250
   1.31553707  1.32611504  6.49842550
   6.57110357  1.38110654  6.49842550
   1.37052857  6.58168154  6.49842550
   6.62609507  6.63667304  6.49842550
   3.99502093  3.98444296  6.49842550
   9.25058743  4.03943446  6.49842550
   4.05001243  9.24000946  6.49842550
   9.30557893  9.29500096  6.49842550
   3.95389829  1.34303282  3.89418850
   9.20946479  1.39802432  3.89418850
   4.00888979  6.59859932  3.89418850
   9.26445629  6.65359082  3.89418850
   1.35665971  3.96752518  3.89418850
   6.61222621  4.02251668  3.89418850
   1.41165121  9.22309168  3.89418850
   6.66721771  9.27808318  3.89418850
   0.00000000  0.00000000  5.21883886
   5.25556650  0.05499150  5.21883886
   0.05499150  5.25556650  5.21883886
   5.31055800  5.31055800  5.21883886
   2.62778325  0.02749575  2.61460186
   7.88334975  0.08248725  2.61460186
   2.68277475  5.28306225  2.61460186
   7.93834125  5.33805375  2.61460186
   2.65527900  2.65527900  0.01036486
   7.91084550  2.71027050  0.01036486
   2.71027050  7.91084550  0.01036486
   7.96583700  7.96583700  0.01036486
   0.02749575  2.62778325  7.82307586
   5.28306225  2.68277475  7.82307586
   0.08248725  7.88334975  7.82307586
   5.33805375  7.93834125  7.82307586
   0.00000000  0.00000000  0.01396913
   5.25556650  0.05499150  0.01396913
   0.05499150  5.25556650  0.01396913
   5.31055800  5.31055800  0.01396913
   2.62778325  0.02749575  7.82668013
   7.88334975  0.08248725  7.82668013
   2.68277475  5.28306225  7.82668013
   7.93834125  5.33805375  7.82668013
   2.65527900  2.65527900  5.22244313
   7.91084550  2.71027050  5.22244313
   2.71027050  7.91084550  5.22244313
   7.96583700  7.96583700  5.22244313
   0.02749575  2.62778325  2.61820613
   5.28306225  2.68277475  2.61820613
   0.08248725  7.88334975  2.61820613
   5.33805375  7.93834125  2.61820613
 


--------------------------------------------------------------------------------------------------------


 k-point  1 :   0.0000 0.0000 0.0000  plane waves:   48431
 k-point  2 :   0.5000 0.0000 0.0000  plane waves:   48392
 k-point  3 :   0.5000 0.5000 0.0000  plane waves:   48432
 k-point  4 :   0.0000 0.0000 0.5000  plane waves:   48320
 k-point  5 :   0.5000 0.0000 0.5000  plane waves:   48380
 k-point  6 :   0.5000 0.5000 0.5000  plane waves:   48300

 maximum and minimum number of plane-waves per node :     48432    48300

 maximum number of plane-waves:     48432
 maximum index in each direction: 
   IXMAX=   22   IYMAX=   22   IZMAX=   22
   IXMIN=  -23   IYMIN=  -23   IZMIN=  -22


 serial   3D FFT for wavefunctions
 parallel 3D FFT for charge:
    minimum data exchange during FFTs selected (reduces bandwidth)


 total amount of memory used by VASP MPI-rank0   301249. kBytes
=======================================================================

   base      :      30000. kBytes
   nonl-proj :     175882. kBytes
   fftplans  :       4588. kBytes
   grid      :      69719. kBytes
   one-center:       1990. kBytes
   wavefun   :      19070. kBytes
 
     INWAV:  cpu time   11.4442: real time   11.6307
 Broyden mixing: mesh for mixing (old mesh)
   NGX = 45   NGY = 45   NGZ = 45
  (NGX  =192   NGY  =192   NGZ  =180)
  gives a total of  91125 points

 initial charge density was supplied:
 number of electron     688.0000480 magnetization      -0.0000000
 keeping initial charge density in first step


--------------------------------------------------------------------------------------------------------


 Maximum index for augmentation-charges          899 (set IRDMAX)


--------------------------------------------------------------------------------------------------------


 First call to EWALD:  gamma=   0.169
 Maximum number of real-space cells 3x 3x 3
 Maximum number of reciprocal cells 3x 3x 3

    FEWALD:  cpu time    0.0027: real time    0.0031


--------------------------------------- Iteration      1(   1)  ---------------------------------------


    POTLOK:  cpu time    0.3283: real time    0.3876
    SETDIJ:  cpu time    0.0145: real time    0.0146
     EDDAV:  cpu time  140.7797: real time  141.8110
       DOS:  cpu time    0.0032: real time    0.0033
    CHARGE:  cpu time    1.1796: real time    1.1875
    MIXING:  cpu time    0.0068: real time    0.0069
    --------------------------------------------
      LOOP:  cpu time  142.3121: real time  143.4109

 eigenvalue-minimisations  : 18944
 total energy-change (2. order) :-0.2984488E+03  (-0.1767412E+03)
 number of electron     688.0000482 magnetization       0.0000000
 augmentation part      283.1658987 magnetization       0.0000000

 Broyden mixing:
  rms(total) = 0.41646E+01    rms(broyden)= 0.41646E+01
  rms(prec ) = 0.41663E+01
  weight for this iteration     100.00

 Free energy of the ion-electron system (eV)
  ---------------------------------------------------
  alpha Z        PSCENC =      2355.92589590
  Ewald energy   TEWEN  =    -62467.32114926
  -Hartree energ DENC   =    -42965.67337742
  -exchange      EXHF   =         0.00000000
  -V(xc)+E(xc)   XCENC  =      3287.10357309
  PAW double counting   =    112318.72794516  -116011.53105617
  entropy T*S    EENTRO =        -0.00000000
  eigenvalues    EBANDS =    -10835.74576290
  atomic energy  EATOM  =    114020.06510763
  Solvation  Ediel_sol  =         0.00000000
  ---------------------------------------------------
  free energy    TOTEN  =      -298.44882397 eV

  energy without entropy =     -298.44882397  energy(sigma->0) =     -298.44882397


--------------------------------------------------------------------------------------------------------




--------------------------------------- Iteration      1(   2)  ---------------------------------------


    POTLOK:  cpu time    0.1207: real time    0.1237
    SETDIJ:  cpu time    0.0127: real time    0.0128
     EDDAV:  cpu time   79.2822: real time   79.8773
       DOS:  cpu time    0.0008: real time    0.0008
    CHARGE:  cpu time    1.1674: real time    1.1754
    MIXING:  cpu time    0.0028: real time    0.1081
    --------------------------------------------
      LOOP:  cpu time   80.5866: real time   81.2981

 eigenvalue-minimisations  : 13824
 total energy-change (2. order) :-0.2933210E+02  (-0.2941101E+02)
 number of electron     688.0000480 magnetization       0.0000000
 augmentation part      281.4470541 magnetization       0.0000000

 Broyden mixing:
  rms(total) = 0.16975E+01    rms(broyden)= 0.16975E+01
  rms(prec ) = 0.17138E+01
  weight for this iteration     100.00

 eigenvalues of (default mixing * dielectric matrix)
  average eigenvalue GAMMA=   0.6996
  0.6996

 Free energy of the ion-electron system (eV)
  ---------------------------------------------------
  alpha Z        PSCENC =      2355.92589590
  Ewald energy   TEWEN  =    -62467.32114926
  -Hartree energ DENC   =    -42978.12505011
  -exchange      EXHF   =         0.00000000
  -V(xc)+E(xc)   XCENC  =      3287.43679461
  PAW double counting   =    115890.29276836  -119600.08359861
  entropy T*S    EENTRO =        -0.00000000
  eigenvalues    EBANDS =    -10835.97169723
  atomic energy  EATOM  =    114020.06510763
  Solvation  Ediel_sol  =         0.00000000
  ---------------------------------------------------
  free energy    TOTEN  =      -327.78092871 eV

  energy without entropy =     -327.78092871  energy(sigma->0) =     -327.78092871


--------------------------------------------------------------------------------------------------------




--------------------------------------- Iteration      1(   3)  ---------------------------------------


    POTLOK:  cpu time    0.1186: real time    0.1223
    SETDIJ:  cpu time    0.0128: real time    0.0128
     EDDAV:  cpu time  136.0152: real time  136.9248
       DOS:  cpu time    0.0008: real time    0.0008
    CHARGE:  cpu time    1.1681: real time    1.1763
    MIXING:  cpu time    0.0015: real time    0.0037
    --------------------------------------------
      LOOP:  cpu time  137.3170: real time  138.2406

 eigenvalue-minimisations  : 18688
 total energy-change (2. order) :-0.3140730E+00  (-0.5365713E+00)
 number of electron     688.0000481 magnetization       0.0000000
 augmentation part      282.3457743 magnetization       0.0000000

 Broyden mixing:
  rms(total) = 0.12713E+01    rms(broyden)= 0.12713E+01
  rms(prec ) = 0.12877E+01
  weight for this iteration     100.00

 eigenvalues of (default mixing * dielectric matrix)
  average eigenvalue GAMMA=   0.5059
  0.5059  0.5059

 Free energy of the ion-electron system (eV)
  ---------------------------------------------------
  alpha Z        PSCENC =      2355.92589590
  Ewald energy   TEWEN  =    -62467.32114926
  -Hartree energ DENC   =    -42941.83159200
  -exchange      EXHF   =         0.00000000
  -V(xc)+E(xc)   XCENC  =      3286.75906566
  PAW double counting   =    114888.05171511  -118587.99490770
  entropy T*S    EENTRO =        -0.00000000
  eigenvalues    EBANDS =    -10881.74913702
  atomic energy  EATOM  =    114020.06510763
  Solvation  Ediel_sol  =         0.00000000
  ---------------------------------------------------
  free energy    TOTEN  =      -328.09500168 eV

  energy without entropy =     -328.09500168  energy(sigma->0) =     -328.09500168


--------------------------------------------------------------------------------------------------------




--------------------------------------- Iteration      1(   4)  ---------------------------------------


    POTLOK:  cpu time    0.1220: real time    0.1229
    SETDIJ:  cpu time    0.0127: real time    0.0128
     EDDAV:  cpu time   86.5705: real time   87.1954
       DOS:  cpu time    0.0008: real time    0.0008
    CHARGE:  cpu time    1.1815: real time    1.1892
    MIXING:  cpu time    0.0019: real time    0.0236
    --------------------------------------------
      LOOP:  cpu time   87.8894: real time   88.5448

 eigenvalue-minimisations  : 14080
 total energy-change (2. order) : 0.1562317E-01  (-0.7571168E-01)
 number of electron     688.0000481 magnetization       0.0000000
 augmentation part      282.1792593 magnetization       0.0000000

 Broyden mixing:
  rms(total) = 0.10589E+01    rms(broyden)= 0.10589E+01
  rms(prec ) = 0.10599E+01
  weight for this iteration     100.00

 eigenvalues of (default mixing * dielectric matrix)
  average eigenvalue GAMMA=   0.5344
  0.6296  0.6296  0.3439

 Free energy of the ion-electron system (eV)
  ---------------------------------------------------
  alpha Z        PSCENC =      2355.92589590
  Ewald energy   TEWEN  =    -62467.32114926
  -Hartree energ DENC   =    -42943.15859199
  -exchange      EXHF   =         0.00000000
  -V(xc)+E(xc)   XCENC  =      3286.40055067
  PAW double counting   =    114588.72191265  -118289.39861901
  entropy T*S    EENTRO =        -0.00000000
  eigenvalues    EBANDS =    -10879.31448510
  atomic energy  EATOM  =    114020.06510763
  Solvation  Ediel_sol  =         0.00000000
  ---------------------------------------------------
  free energy    TOTEN  =      -328.07937852 eV

  energy without entropy =     -328.07937852  energy(sigma->0) =     -328.07937852


--------------------------------------------------------------------------------------------------------




--------------------------------------- Iteration      1(   5)  ---------------------------------------


    POTLOK:  cpu time    0.1240: real time    0.1248
    SETDIJ:  cpu time    0.0128: real time    0.0128
     EDDAV:  cpu time  104.8161: real time  105.5544
       DOS:  cpu time    0.0008: real time    0.0008
    CHARGE:  cpu time    1.4318: real time    1.4403
    MIXING:  cpu time    0.0016: real time    0.0016
    --------------------------------------------
      LOOP:  cpu time  106.3870: real time  107.1347

 eigenvalue-minimisations  : 16128
 total energy-change (2. order) :-0.7316802E-03  (-0.4770633E-02)
 number of electron     688.0000481 magnetization       0.0000000
 augmentation part      282.1142117 magnetization       0.0000000

 Broyden mixing:
  rms(total) = 0.91302E+00    rms(broyden)= 0.91302E+00
  rms(prec ) = 0.91327E+00
  weight for this iteration     100.00

 eigenvalues of (default mixing * dielectric matrix)
  average eigenvalue GAMMA=   0.5686
  0.7834  0.7834  0.3538  0.3538

 Free energy of the ion-electron system (eV)
  ---------------------------------------------------
  alpha Z        PSCENC =      2355.92589590
  Ewald energy   TEWEN  =    -62467.32114926
  -Hartree energ DENC   =    -42951.18561692
  -exchange      EXHF   =         0.00000000
  -V(xc)+E(xc)   XCENC  =      3286.61352473
  PAW double counting   =    114237.67880444  -117938.04228640
  entropy T*S    EENTRO =        -0.00000000
  eigenvalues    EBANDS =    -10871.81439031
  atomic energy  EATOM  =    114020.06510763
  Solvation  Ediel_sol  =         0.00000000
  ---------------------------------------------------
  free energy    TOTEN  =      -328.08011020 eV

  energy without entropy =     -328.08011020  energy(sigma->0) =     -328.08011020


--------------------------------------------------------------------------------------------------------




--------------------------------------- Iteration      1(   6)  ---------------------------------------


    POTLOK:  cpu time    0.1329: real time    0.1337
    SETDIJ:  cpu time    0.0144: real time    0.0145
     EDDAV:  cpu time  101.5805: real time  102.2947
       DOS:  cpu time    0.0008: real time    0.0008
    CHARGE:  cpu time    1.1668: real time    1.1745
    MIXING:  cpu time    0.0014: real time    0.0014
    --------------------------------------------
      LOOP:  cpu time  102.8968: real time  103.6196

 eigenvalue-minimisations  : 15360
 total energy-change (2. order) : 0.4246206E-03  (-0.3734520E-03)
 number of electron     688.0000481 magnetization      -0.0000000
 augmentation part      282.1078624 magnetization      -0.0000000

 Broyden mixing:
  rms(total) = 0.73564E+00    rms(broyden)= 0.73564E+00
  rms(prec ) = 0.73609E+00
  weight for this iteration     100.00

 eigenvalues of (default mixing * dielectric matrix)
  average eigenvalue GAMMA=   0.8120
  1.3258  1.3258  0.5395  0.5395  0.3295

 Free energy of the ion-electron system (eV)
  ---------------------------------------------------
  alpha Z        PSCENC =      2355.92589590
  Ewald energy   TEWEN  =    -62467.32114926
  -Hartree energ DENC   =    -42952.61566400
  -exchange      EXHF   =         0.00000000
  -V(xc)+E(xc)   XCENC  =      3286.59294892
  PAW double counting   =    113830.27170240  -117529.29386981
  entropy T*S    EENTRO =        -0.00000000
  eigenvalues    EBANDS =    -10871.70465736
  atomic energy  EATOM  =    114020.06510763
  Solvation  Ediel_sol  =         0.00000000
  ---------------------------------------------------
  free energy    TOTEN  =      -328.07968557 eV

  energy without entropy =     -328.07968557  energy(sigma->0) =     -328.07968557


--------------------------------------------------------------------------------------------------------




--------------------------------------- Iteration      1(   7)  ---------------------------------------


    POTLOK:  cpu time    0.1212: real time    0.1222
    SETDIJ:  cpu time    0.0129: real time    0.0129
     EDDAV:  cpu time  121.3995: real time  122.2255
       DOS:  cpu time    0.0008: real time    0.0008
    CHARGE:  cpu time    1.1642: real time    1.1718
    MIXING:  cpu time    0.0016: real time    0.0016
    --------------------------------------------
      LOOP:  cpu time  122.7002: real time  123.5348

 eigenvalue-minimisations  : 16896
 total energy-change (2. order) : 0.2284209E-02  (-0.7761304E-03)
 number of electron     688.0000481 magnetization      -0.0000000
 augmentation part      282.2102498 magnetization      -0.0000000

 Broyden mixing:
  rms(total) = 0.15231E+00    rms(broyden)= 0.15231E+00
  rms(prec ) = 0.15252E+00
  weight for this iteration     100.00

 eigenvalues of (default mixing * dielectric matrix)
  average eigenvalue GAMMA=   0.8730
  1.5551  1.5551  0.6159  0.6159  0.5581  0.3380

 Free energy of the ion-electron system (eV)
  ---------------------------------------------------
  alpha Z        PSCENC =      2355.92589590
  Ewald energy   TEWEN  =    -62467.32114926
  -Hartree energ DENC   =    -42953.73416931
  -exchange      EXHF   =         0.00000000
  -V(xc)+E(xc)   XCENC  =      3286.51451926
  PAW double counting   =    112524.29056900  -116218.62045187
  entropy T*S    EENTRO =        -0.00000000
  eigenvalues    EBANDS =    -10875.19772272
  atomic energy  EATOM  =    114020.06510763
  Solvation  Ediel_sol  =         0.00000000
  ---------------------------------------------------
  free energy    TOTEN  =      -328.07740137 eV

  energy without entropy =     -328.07740137  energy(sigma->0) =     -328.07740137


--------------------------------------------------------------------------------------------------------




--------------------------------------- Iteration      1(   8)  ---------------------------------------


    POTLOK:  cpu time    0.1211: real time    0.1231
    SETDIJ:  cpu time    0.0126: real time    0.0127
     EDDAV:  cpu time   79.4275: real time   80.0110
       DOS:  cpu time    0.0008: real time    0.0008
    CHARGE:  cpu time    1.1644: real time    1.1721
    MIXING:  cpu time    0.0015: real time    0.0015
    --------------------------------------------
      LOOP:  cpu time   80.7280: real time   81.3212

 eigenvalue-minimisations  : 13312
 total energy-change (2. order) :-0.2536493E-04  (-0.3277483E-04)
 number of electron     688.0000481 magnetization      -0.0000000
 augmentation part      282.2057265 magnetization      -0.0000000

 Broyden mixing:
  rms(total) = 0.10215E+00    rms(broyden)= 0.10215E+00
  rms(prec ) = 0.10241E+00
  weight for this iteration     100.00

 eigenvalues of (default mixing * dielectric matrix)
  average eigenvalue GAMMA=   0.7977
  1.5773  1.5773  0.6253  0.6253  0.5165  0.3580  0.3044

 Free energy of the ion-electron system (eV)
  ---------------------------------------------------
  alpha Z        PSCENC =      2355.92589590
  Ewald energy   TEWEN  =    -62467.32114926
  -Hartree energ DENC   =    -42954.34367510
  -exchange      EXHF   =         0.00000000
  -V(xc)+E(xc)   XCENC  =      3286.52544356
  PAW double counting   =    112432.49237868  -116126.68586276
  entropy T*S    EENTRO =        -0.00000000
  eigenvalues    EBANDS =    -10874.73556538
  atomic energy  EATOM  =    114020.06510763
  Solvation  Ediel_sol  =         0.00000000
  ---------------------------------------------------
  free energy    TOTEN  =      -328.07742673 eV

  energy without entropy =     -328.07742673  energy(sigma->0) =     -328.07742673


--------------------------------------------------------------------------------------------------------




--------------------------------------- Iteration      1(   9)  ---------------------------------------


    POTLOK:  cpu time    0.1224: real time    0.1234
    SETDIJ:  cpu time    0.0127: real time    0.0127
     EDDAV:  cpu time  135.8149: real time  136.7161
       DOS:  cpu time    0.0008: real time    0.0008
    CHARGE:  cpu time    1.1654: real time    1.1732
    MIXING:  cpu time    0.0016: real time    0.0016
    --------------------------------------------
      LOOP:  cpu time  137.1179: real time  138.0278

 eigenvalue-minimisations  : 17920
 total energy-change (2. order) : 0.1734223E-04  (-0.2479278E-05)
 number of electron     688.0000481 magnetization       0.0000000
 augmentation part      282.2071620 magnetization       0.0000000

 Broyden mixing:
  rms(total) = 0.91392E-01    rms(broyden)= 0.91392E-01
  rms(prec ) = 0.91602E-01
  weight for this iteration     100.00

 eigenvalues of (default mixing * dielectric matrix)
  average eigenvalue GAMMA=   1.1207
  2.3621  2.3621  1.0422  1.0422  0.3356  0.5940  0.5940  0.6333

 Free energy of the ion-electron system (eV)
  ---------------------------------------------------
  alpha Z        PSCENC =      2355.92589590
  Ewald energy   TEWEN  =    -62467.32114926
  -Hartree energ DENC   =    -42954.20468444
  -exchange      EXHF   =         0.00000000
  -V(xc)+E(xc)   XCENC  =      3286.52412396
  PAW double counting   =    112421.87244357  -116116.06920587
  entropy T*S    EENTRO =        -0.00000000
  eigenvalues    EBANDS =    -10874.86994088
  atomic energy  EATOM  =    114020.06510763
  Solvation  Ediel_sol  =         0.00000000
  ---------------------------------------------------
  free energy    TOTEN  =      -328.07740939 eV

  energy without entropy =     -328.07740939  energy(sigma->0) =     -328.07740939


--------------------------------------------------------------------------------------------------------




--------------------------------------- Iteration      1(  10)  ---------------------------------------


    POTLOK:  cpu time    0.1221: real time    0.1229
    SETDIJ:  cpu time    0.0128: real time    0.0128
     EDDAV:  cpu time   85.6212: real time   86.2424
       DOS:  cpu time    0.0008: real time    0.0008
    CHARGE:  cpu time    1.1673: real time    1.1752
    MIXING:  cpu time    0.0017: real time    0.0017
    --------------------------------------------
      LOOP:  cpu time   86.9259: real time   87.5558

 eigenvalue-minimisations  : 13824
 total energy-change (2. order) : 0.4947076E-04  (-0.4035486E-04)
 number of electron     688.0000481 magnetization       0.0000000
 augmentation part      282.2197466 magnetization       0.0000000

 Broyden mixing:
  rms(total) = 0.41710E-02    rms(broyden)= 0.41709E-02
  rms(prec ) = 0.42001E-02
  weight for this iteration     100.00

 eigenvalues of (default mixing * dielectric matrix)
  average eigenvalue GAMMA=   1.0567
  2.7743  1.7331  1.3611  0.8286  0.3356  0.7550  0.5825  0.5825  0.5578

 Free energy of the ion-electron system (eV)
  ---------------------------------------------------
  alpha Z        PSCENC =      2355.92589590
  Ewald energy   TEWEN  =    -62467.32114926
  -Hartree energ DENC   =    -42953.70460755
  -exchange      EXHF   =         0.00000000
  -V(xc)+E(xc)   XCENC  =      3286.51388267
  PAW double counting   =    112287.64086682  -115981.59513377
  entropy T*S    EENTRO =        -0.00000000
  eigenvalues    EBANDS =    -10875.60222236
  atomic energy  EATOM  =    114020.06510763
  Solvation  Ediel_sol  =         0.00000000
  ---------------------------------------------------
  free energy    TOTEN  =      -328.07735992 eV

  energy without entropy =     -328.07735992  energy(sigma->0) =     -328.07735992


--------------------------------------------------------------------------------------------------------




--------------------------------------- Iteration      1(  11)  ---------------------------------------


    POTLOK:  cpu time    0.1228: real time    0.1238
    SETDIJ:  cpu time    0.0128: real time    0.0128
     EDDAV:  cpu time   94.5022: real time   95.1718
       DOS:  cpu time    0.0008: real time    0.0008
    CHARGE:  cpu time    1.1800: real time    1.1879
    MIXING:  cpu time    0.0017: real time    0.0017
    --------------------------------------------
      LOOP:  cpu time   95.8202: real time   96.4989

 eigenvalue-minimisations  : 14592
 total energy-change (2. order) :-0.1417997E-05  (-0.1143315E-05)
 number of electron     688.0000481 magnetization       0.0000000
 augmentation part      282.2208576 magnetization       0.0000000

 Broyden mixing:
  rms(total) = 0.11577E-02    rms(broyden)= 0.11576E-02
  rms(prec ) = 0.11838E-02
  weight for this iteration     100.00

 eigenvalues of (default mixing * dielectric matrix)
  average eigenvalue GAMMA=   1.0450
  2.8925  1.5522  1.5522  0.3356  0.7655  0.7655  0.6877  0.6877  0.6053  0.6053

 Free energy of the ion-electron system (eV)
  ---------------------------------------------------
  alpha Z        PSCENC =      2355.92589590
  Ewald energy   TEWEN  =    -62467.32114926
  -Hartree energ DENC   =    -42953.72265194
  -exchange      EXHF   =         0.00000000
  -V(xc)+E(xc)   XCENC  =      3286.51316577
  PAW double counting   =    112277.38431340  -115971.32370464
  entropy T*S    EENTRO =        -0.00000000
  eigenvalues    EBANDS =    -10875.59833819
  atomic energy  EATOM  =    114020.06510763
  Solvation  Ediel_sol  =         0.00000000
  ---------------------------------------------------
  free energy    TOTEN  =      -328.07736134 eV

  energy without entropy =     -328.07736134  energy(sigma->0) =     -328.07736134


--------------------------------------------------------------------------------------------------------




--------------------------------------- Iteration      1(  12)  ---------------------------------------


    POTLOK:  cpu time    0.1215: real time    0.1224
    SETDIJ:  cpu time    0.0126: real time    0.0127
     EDDAV:  cpu time  150.8851: real time  151.8884
       DOS:  cpu time    0.0008: real time    0.0008
    CHARGE:  cpu time    1.1750: real time    1.1828
    MIXING:  cpu time    0.0020: real time    0.0027
    --------------------------------------------
      LOOP:  cpu time  152.1970: real time  153.2097

 eigenvalue-minimisations  : 19968
 total energy-change (2. order) :-0.4494650E-06  (-0.1024014E-06)
 number of electron     688.0000481 magnetization       0.0000000
 augmentation part      282.2210032 magnetization       0.0000000

 Broyden mixing:
  rms(total) = 0.40105E-02    rms(broyden)= 0.40105E-02
  rms(prec ) = 0.40158E-02
  weight for this iteration     100.00

 eigenvalues of (default mixing * dielectric matrix)
  average eigenvalue GAMMA=   1.1449
  3.1175  1.8372  1.8372  1.1070  1.1070  0.3356  0.5967  0.5967  0.7255  0.7255
  0.6076

 Free energy of the ion-electron system (eV)
  ---------------------------------------------------
  alpha Z        PSCENC =      2355.92589590
  Ewald energy   TEWEN  =    -62467.32114926
  -Hartree energ DENC   =    -42953.73574918
  -exchange      EXHF   =         0.00000000
  -V(xc)+E(xc)   XCENC  =      3286.51315723
  PAW double counting   =    112270.61926138  -115964.55613395
  entropy T*S    EENTRO =        -0.00000000
  eigenvalues    EBANDS =    -10875.58775153
  atomic energy  EATOM  =    114020.06510763
  Solvation  Ediel_sol  =         0.00000000
  ---------------------------------------------------
  free energy    TOTEN  =      -328.07736179 eV

  energy without entropy =     -328.07736179  energy(sigma->0) =     -328.07736179


--------------------------------------------------------------------------------------------------------




--------------------------------------- Iteration      1(  13)  ---------------------------------------


    POTLOK:  cpu time    0.1212: real time    0.1220
    SETDIJ:  cpu time    0.0129: real time    0.0129
     EDDAV:  cpu time  106.6805: real time  107.4184
       DOS:  cpu time    0.0008: real time    0.0008
    CHARGE:  cpu time    1.3450: real time    1.3536
    MIXING:  cpu time    0.0021: real time    0.0021
    --------------------------------------------
      LOOP:  cpu time  108.1624: real time  108.9098

 eigenvalue-minimisations  : 15360
 total energy-change (2. order) :-0.7163035E-06  (-0.1250133E-06)
 number of electron     688.0000481 magnetization       0.0000000
 augmentation part      282.2204612 magnetization       0.0000000

 Broyden mixing:
  rms(total) = 0.34371E-02    rms(broyden)= 0.34371E-02
  rms(prec ) = 0.34383E-02
  weight for this iteration     100.00

 eigenvalues of (default mixing * dielectric matrix)
  average eigenvalue GAMMA=   1.1338
  2.9555  1.9618  1.9618  1.1734  1.1734  0.3356  0.8119  0.8119  0.5979  0.5979
  0.6123  0.6123

 Free energy of the ion-electron system (eV)
  ---------------------------------------------------
  alpha Z        PSCENC =      2355.92589590
  Ewald energy   TEWEN  =    -62467.32114926
  -Hartree energ DENC   =    -42953.76244878
  -exchange      EXHF   =         0.00000000
  -V(xc)+E(xc)   XCENC  =      3286.51382940
  PAW double counting   =    112271.05880972  -115965.01725904
  entropy T*S    EENTRO =        -0.00000000
  eigenvalues    EBANDS =    -10875.54014807
  atomic energy  EATOM  =    114020.06510763
  Solvation  Ediel_sol  =         0.00000000
  ---------------------------------------------------
  free energy    TOTEN  =      -328.07736250 eV

  energy without entropy =     -328.07736250  energy(sigma->0) =     -328.07736250


--------------------------------------------------------------------------------------------------------




--------------------------------------- Iteration      1(  14)  ---------------------------------------


    POTLOK:  cpu time    0.1343: real time    0.1352
    SETDIJ:  cpu time    0.0144: real time    0.0144
     EDDAV:  cpu time  101.0272: real time  101.7312
       DOS:  cpu time    0.0008: real time    0.0008
    CHARGE:  cpu time    1.1676: real time    1.1751
    MIXING:  cpu time    0.0020: real time    0.0020
    --------------------------------------------
      LOOP:  cpu time  102.3462: real time  103.0587

 eigenvalue-minimisations  : 14848
 total energy-change (2. order) :-0.4149042E-06  (-0.1660392E-07)
 number of electron     688.0000481 magnetization       0.0000000
 augmentation part      282.2204433 magnetization       0.0000000

 Broyden mixing:
  rms(total) = 0.13441E-02    rms(broyden)= 0.13441E-02
  rms(prec ) = 0.13448E-02
  weight for this iteration     100.00

 eigenvalues of (default mixing * dielectric matrix)
  average eigenvalue GAMMA=   1.1720
  3.1053  2.1894  2.1894  1.2040  1.2040  0.9222  0.9222  0.3356  0.5991  0.5991
  0.6837  0.6837  0.5984

 Free energy of the ion-electron system (eV)
  ---------------------------------------------------
  alpha Z        PSCENC =      2355.92589590
  Ewald energy   TEWEN  =    -62467.32114926
  -Hartree energ DENC   =    -42953.75095436
  -exchange      EXHF   =         0.00000000
  -V(xc)+E(xc)   XCENC  =      3286.51372960
  PAW double counting   =    112274.88234721  -115968.85433598
  entropy T*S    EENTRO =        -0.00000000
  eigenvalues    EBANDS =    -10875.53800366
  atomic energy  EATOM  =    114020.06510763
  Solvation  Ediel_sol  =         0.00000000
  ---------------------------------------------------
  free energy    TOTEN  =      -328.07736292 eV

  energy without entropy =     -328.07736292  energy(sigma->0) =     -328.07736292


--------------------------------------------------------------------------------------------------------




--------------------------------------- Iteration      1(  15)  ---------------------------------------


    POTLOK:  cpu time    0.1199: real time    0.1215
    SETDIJ:  cpu time    0.0127: real time    0.0127
     EDDAV:  cpu time   96.2492: real time   96.9201
       DOS:  cpu time    0.0008: real time    0.0008
    CHARGE:  cpu time    1.1768: real time    1.1844
    MIXING:  cpu time    0.0021: real time    0.0021
    --------------------------------------------
      LOOP:  cpu time   97.5615: real time   98.2417

 eigenvalue-minimisations  : 13824
 total energy-change (2. order) :-0.2074376E-06  (-0.1817289E-07)
 number of electron     688.0000481 magnetization       0.0000000
 augmentation part      282.2205182 magnetization       0.0000000

 Broyden mixing:
  rms(total) = 0.82329E-03    rms(broyden)= 0.82329E-03
  rms(prec ) = 0.82403E-03
  weight for this iteration     100.00

 eigenvalues of (default mixing * dielectric matrix)
  average eigenvalue GAMMA=   1.2411
  3.6444  2.3437  2.3437  1.3683  1.3683  1.0296  1.0296  0.3356  0.5979  0.5979
  0.7397  0.7397  0.6185  0.6185

 Free energy of the ion-electron system (eV)
  ---------------------------------------------------
  alpha Z        PSCENC =      2355.92589590
  Ewald energy   TEWEN  =    -62467.32114926
  -Hartree energ DENC   =    -42953.73854652
  -exchange      EXHF   =         0.00000000
  -V(xc)+E(xc)   XCENC  =      3286.51335819
  PAW double counting   =    112275.81036478  -115969.78835988
  entropy T*S    EENTRO =        -0.00000000
  eigenvalues    EBANDS =    -10875.54403396
  atomic energy  EATOM  =    114020.06510763
  Solvation  Ediel_sol  =         0.00000000
  ---------------------------------------------------
  free energy    TOTEN  =      -328.07736312 eV

  energy without entropy =     -328.07736312  energy(sigma->0) =     -328.07736312


--------------------------------------------------------------------------------------------------------




--------------------------------------- Iteration      1(  16)  ---------------------------------------


    POTLOK:  cpu time    0.1260: real time    0.1269
    SETDIJ:  cpu time    0.0127: real time    0.0128
     EDDAV:  cpu time  107.8900: real time  108.6418
       DOS:  cpu time    0.0008: real time    0.0008
    CHARGE:  cpu time    1.1714: real time    1.1790
    MIXING:  cpu time    0.0041: real time    0.0041
    --------------------------------------------
      LOOP:  cpu time  109.2051: real time  109.9654

 eigenvalue-minimisations  : 15616
 total energy-change (2. order) :-0.6711343E-07  (-0.1033981E-07)
 number of electron     688.0000481 magnetization       0.0000000
 augmentation part      282.2203877 magnetization       0.0000000

 Broyden mixing:
  rms(total) = 0.21766E-03    rms(broyden)= 0.21766E-03
  rms(prec ) = 0.21788E-03
  weight for this iteration     100.00

 eigenvalues of (default mixing * dielectric matrix)
  average eigenvalue GAMMA=   1.2473
  3.9964  2.5879  1.9285  1.9285  1.1986  1.1986  0.9250  0.3356  0.7626  0.7626
  0.5986  0.5986  0.6876  0.6001  0.6001

 Free energy of the ion-electron system (eV)
  ---------------------------------------------------
  alpha Z        PSCENC =      2355.92589590
  Ewald energy   TEWEN  =    -62467.32114926
  -Hartree energ DENC   =    -42953.73604316
  -exchange      EXHF   =         0.00000000
  -V(xc)+E(xc)   XCENC  =      3286.51334166
  PAW double counting   =    112277.07369205  -115971.05639950
  entropy T*S    EENTRO =        -0.00000000
  eigenvalues    EBANDS =    -10875.54180852
  atomic energy  EATOM  =    114020.06510763
  Solvation  Ediel_sol  =         0.00000000
  ---------------------------------------------------
  free energy    TOTEN  =      -328.07736319 eV

  energy without entropy =     -328.07736319  energy(sigma->0) =     -328.07736319


--------------------------------------------------------------------------------------------------------




--------------------------------------- Iteration      1(  17)  ---------------------------------------


    POTLOK:  cpu time    0.1199: real time    0.1224
    SETDIJ:  cpu time    0.0128: real time    0.0129
     EDDAV:  cpu time   76.6652: real time   77.2112
       DOS:  cpu time    0.0008: real time    0.0008
    CHARGE:  cpu time    1.1740: real time    1.1812
    MIXING:  cpu time    0.0023: real time    0.0023
    --------------------------------------------
      LOOP:  cpu time   77.9748: real time   78.5307

 eigenvalue-minimisations  : 11264
 total energy-change (2. order) :-0.1784065E-07  (-0.8339894E-09)
 number of electron     688.0000481 magnetization       0.0000000
 augmentation part      282.2203556 magnetization       0.0000000

 Broyden mixing:
  rms(total) = 0.81068E-04    rms(broyden)= 0.81068E-04
  rms(prec ) = 0.81303E-04
  weight for this iteration     100.00

 eigenvalues of (default mixing * dielectric matrix)
  average eigenvalue GAMMA=   1.2496
  3.9648  2.8302  1.9843  1.9843  1.2148  1.2148  0.8681  0.8681  0.3356  0.8301
  0.8301  0.5983  0.5983  0.6361  0.6361  0.5998

 Free energy of the ion-electron system (eV)
  ---------------------------------------------------
  alpha Z        PSCENC =      2355.92589590
  Ewald energy   TEWEN  =    -62467.32114926
  -Hartree energ DENC   =    -42953.73518278
  -exchange      EXHF   =         0.00000000
  -V(xc)+E(xc)   XCENC  =      3286.51337717
  PAW double counting   =    112277.66157137  -115971.64541888
  entropy T*S    EENTRO =        -0.00000000
  eigenvalues    EBANDS =    -10875.54156435
  atomic energy  EATOM  =    114020.06510763
  Solvation  Ediel_sol  =         0.00000000
  ---------------------------------------------------
  free energy    TOTEN  =      -328.07736321 eV

  energy without entropy =     -328.07736321  energy(sigma->0) =     -328.07736321


--------------------------------------------------------------------------------------------------------




--------------------------------------- Iteration      1(  18)  ---------------------------------------


    POTLOK:  cpu time    0.1206: real time    0.1214
    SETDIJ:  cpu time    0.0130: real time    0.0130
     EDDAV:  cpu time   77.6785: real time   78.2198
       DOS:  cpu time    0.0030: real time    0.0030
    --------------------------------------------
      LOOP:  cpu time   77.8151: real time   78.3572

 eigenvalue-minimisations  : 10752
 total energy-change (2. order) :-0.9138603E-08  (-0.2102786E-09)
 number of electron     688.0000481 magnetization       0.0000000
 augmentation part      282.2203556 magnetization       0.0000000

 Free energy of the ion-electron system (eV)
  ---------------------------------------------------
  alpha Z        PSCENC =      2355.92589590
  Ewald energy   TEWEN  =    -62467.32114926
  -Hartree energ DENC   =    -42953.73497059
  -exchange      EXHF   =         0.00000000
  -V(xc)+E(xc)   XCENC  =      3286.51340283
  PAW double counting   =    112277.77086902  -115971.75449933
  entropy T*S    EENTRO =        -0.00000000
  eigenvalues    EBANDS =    -10875.54201942
  atomic energy  EATOM  =    114020.06510763
  Solvation  Ediel_sol  =         0.00000000
  ---------------------------------------------------
  free energy    TOTEN  =      -328.07736322 eV

  energy without entropy =     -328.07736322  energy(sigma->0) =     -328.07736322


--------------------------------------------------------------------------------------------------------




 average (electrostatic) potential at core
  the test charge radii are     0.9698  0.8297  0.9500
  (the norm of the test charge is              1.0000)
       1 -86.6224       2 -86.6224       3 -86.6224       4 -86.6224       5 -86.6224
       6 -86.6224       7 -86.6224       8 -86.6224       9 -86.6224      10 -86.6224
      11 -86.6224      12 -86.6224      13 -86.6224      14 -86.6224      15 -86.6224
      16 -86.6224      17 -86.6224      18 -86.6224      19 -86.6224      20 -86.6224
      21 -86.6224      22 -86.6224      23 -86.6224      24 -86.6224      25 -86.6224
      26 -86.6224      27 -86.6224      28 -86.6224      29 -86.6224      30 -86.6224
      31 -86.6224      32 -86.6224      33 -80.7018      34 -80.7018      35 -80.7018
      36 -80.7018      37 -80.7018      38 -80.7018      39 -80.7018      40 -80.7018
      41 -80.7018      42 -80.7018      43 -80.7018      44 -80.7018      45 -80.7018
      46 -80.7018      47 -80.7018      48 -80.7018      49 -80.2281      50 -80.2281
      51 -80.2281      52 -80.2281      53 -80.2281      54 -80.2281      55 -80.2281
      56 -80.2281      57 -80.2281      58 -80.2281      59 -80.2281      60 -80.2281
[...]
   -.220E+00 0.421E+02 0.646E+01   0.213E+00 -.430E+02 -.652E+01   0.704E-02 0.863E+00 0.641E-01   -.121E-05 0.897E-05 0.453E-05
   -.421E+02 0.220E+00 0.646E+01   0.430E+02 -.213E+00 -.652E+01   -.863E+00 -.704E-02 0.641E-01   -.897E-05 0.121E-05 0.453E-05
   -.421E+02 0.220E+00 0.646E+01   0.430E+02 -.213E+00 -.652E+01   -.863E+00 -.704E-02 0.641E-01   -.897E-05 0.121E-05 0.453E-05
   -.421E+02 0.220E+00 0.646E+01   0.430E+02 -.213E+00 -.652E+01   -.863E+00 -.704E-02 0.641E-01   -.897E-05 0.121E-05 0.453E-05
   -.421E+02 0.220E+00 0.646E+01   0.430E+02 -.213E+00 -.652E+01   -.863E+00 -.704E-02 0.641E-01   -.897E-05 0.121E-05 0.453E-05
   0.421E+02 -.220E+00 0.646E+01   -.430E+02 0.213E+00 -.652E+01   0.863E+00 0.704E-02 0.641E-01   0.897E-05 -.121E-05 0.453E-05
   0.421E+02 -.220E+00 0.646E+01   -.430E+02 0.213E+00 -.652E+01   0.863E+00 0.704E-02 0.641E-01   0.897E-05 -.121E-05 0.453E-05
   0.421E+02 -.220E+00 0.646E+01   -.430E+02 0.213E+00 -.652E+01   0.863E+00 0.704E-02 0.641E-01   0.897E-05 -.121E-05 0.453E-05
   0.421E+02 -.220E+00 0.646E+01   -.430E+02 0.213E+00 -.652E+01   0.863E+00 0.704E-02 0.641E-01   0.897E-05 -.121E-05 0.453E-05
   0.220E+00 -.421E+02 0.646E+01   -.213E+00 0.430E+02 -.652E+01   -.704E-02 -.863E+00 0.641E-01   0.121E-05 -.897E-05 0.453E-05
   0.220E+00 -.421E+02 0.646E+01   -.213E+00 0.430E+02 -.652E+01   -.704E-02 -.863E+00 0.641E-01   0.121E-05 -.897E-05 0.453E-05
   0.220E+00 -.421E+02 0.646E+01   -.213E+00 0.430E+02 -.652E+01   -.704E-02 -.863E+00 0.641E-01   0.121E-05 -.897E-05 0.453E-05
   0.220E+00 -.421E+02 0.646E+01   -.213E+00 0.430E+02 -.652E+01   -.704E-02 -.863E+00 0.641E-01   0.121E-05 -.897E-05 0.453E-05
   -.220E+00 0.421E+02 0.646E+01   0.213E+00 -.430E+02 -.652E+01   0.704E-02 0.863E+00 0.641E-01   -.121E-05 0.897E-05 0.453E-05
   -.220E+00 0.421E+02 0.646E+01   0.213E+00 -.430E+02 -.652E+01   0.704E-02 0.863E+00 0.641E-01   -.121E-05 0.897E-05 0.453E-05
   -.220E+00 0.421E+02 0.646E+01   0.213E+00 -.430E+02 -.652E+01   0.704E-02 0.863E+00 0.641E-01   -.121E-05 0.897E-05 0.453E-05
   -.220E+00 0.421E+02 0.646E+01   0.213E+00 -.430E+02 -.652E+01   0.704E-02 0.863E+00 0.641E-01   -.121E-05 0.897E-05 0.453E-05
   -.185E-06 0.140E-07 -.761E+01   0.163E-12 -.163E-12 0.730E+01   -.292E-25 0.323E-26 0.309E+00   0.237E-12 0.386E-13 -.224E-04
   -.185E-06 0.140E-07 -.761E+01   0.109E-12 -.171E-12 0.730E+01   -.133E-25 0.194E-25 0.309E+00   -.335E-12 0.122E-12 -.224E-04
   -.185E-06 0.140E-07 -.761E+01   0.106E-12 -.114E-12 0.730E+01   -.345E-25 0.258E-25 0.309E+00   0.144E-12 0.540E-13 -.224E-04
   -.185E-06 0.139E-07 -.761E+01   0.109E-12 -.114E-12 0.730E+01   -.788E-26 0.388E-25 0.309E+00   -.277E-12 -.445E-13 -.224E-04
   0.140E-07 -.185E-06 -.761E+01   0.853E-13 -.284E-13 0.730E+01   0.208E-25 0.711E-25 0.309E+00   -.194E-12 -.588E-13 -.224E-04
   0.140E-07 -.185E-06 -.761E+01   0.114E-12 -.142E-12 0.730E+01   -.915E-25 -.258E-25 0.309E+00   -.366E-12 0.707E-13 -.224E-04
   0.140E-07 -.185E-06 -.761E+01   0.284E-13 -.853E-13 0.730E+01   0.904E-26 -.388E-25 0.309E+00   -.239E-12 0.596E-14 -.224E-04
   0.140E-07 -.185E-06 -.761E+01   0.853E-13 -.853E-13 0.730E+01   -.872E-25 0.129E-25 0.309E+00   -.263E-12 -.359E-13 -.224E-04
   -.185E-06 0.140E-07 -.761E+01   0.135E-12 -.551E-13 0.730E+01   -.190E-25 0.000E+00 0.309E+00   -.267E-12 0.252E-12 -.224E-04
   -.185E-06 0.140E-07 -.761E+01   0.135E-12 -.112E-12 0.730E+01   0.565E-25 -.258E-25 0.309E+00   -.322E-12 0.404E-12 -.224E-04
   -.185E-06 0.140E-07 -.761E+01   0.853E-13 -.417E-13 0.730E+01   -.308E-26 -.711E-25 0.309E+00   -.232E-12 -.411E-12 -.224E-04
   -.185E-06 0.140E-07 -.761E+01   0.142E-12 -.488E-13 0.730E+01   0.189E-25 -.646E-25 0.309E+00   -.283E-12 -.296E-12 -.224E-04
   0.140E-07 -.185E-06 -.761E+01   0.115E-12 -.829E-13 0.730E+01   0.207E-26 0.388E-25 0.309E+00   -.120E-12 0.344E-12 -.224E-04
   0.140E-07 -.185E-06 -.761E+01   0.118E-12 -.829E-13 0.730E+01   0.604E-25 0.258E-25 0.309E+00   -.480E-13 0.369E-12 -.224E-04
   0.140E-07 -.185E-06 -.761E+01   0.115E-12 -.202E-13 0.730E+01   0.394E-26 -.129E-25 0.309E+00   0.138E-12 -.209E-12 -.224E-04
   0.140E-07 -.185E-06 -.761E+01   0.146E-12 -.202E-13 0.730E+01   0.473E-25 0.646E-26 0.309E+00   -.269E-12 -.315E-12 -.224E-04
   0.169E-07 -.575E-07 -.612E+01   0.904E-13 -.391E-13 0.575E+01   0.148E-24 0.152E-24 0.368E+00   0.196E-12 0.429E-13 0.133E-05
   0.169E-07 -.575E-07 -.612E+01   0.921E-13 -.426E-13 0.575E+01   0.121E-24 0.646E-26 0.368E+00   0.357E-13 0.532E-13 0.133E-05
   0.169E-07 -.575E-07 -.612E+01   0.975E-13 -.995E-13 0.575E+01   0.739E-25 0.103E-24 0.368E+00   0.166E-12 0.385E-13 0.133E-05
   0.169E-07 -.575E-07 -.612E+01   0.850E-13 -.711E-13 0.575E+01   -.236E-24 0.136E-24 0.368E+00   0.686E-13 0.456E-13 0.133E-05
   -.575E-07 0.169E-07 -.612E+01   -.192E-12 0.110E-12 0.575E+01   -.266E-25 -.452E-25 0.368E+00   0.596E-13 -.364E-13 0.133E-05
   -.575E-07 0.169E-07 -.612E+01   -.203E-12 0.167E-12 0.575E+01   -.601E-25 -.143E-24 0.368E+00   -.318E-13 0.181E-12 0.133E-05
   -.575E-07 0.169E-07 -.612E+01   -.195E-12 0.167E-12 0.575E+01   0.540E-25 0.582E-25 0.368E+00   0.753E-13 0.648E-13 0.133E-05
   -.575E-07 0.169E-07 -.612E+01   -.135E-12 0.167E-12 0.575E+01   0.278E-25 0.129E-24 0.368E+00   -.754E-13 -.547E-13 0.133E-05
   0.169E-07 -.575E-07 -.612E+01   0.121E-12 -.759E-13 0.575E+01   -.151E-24 0.388E-25 0.368E+00   0.101E-12 0.254E-12 0.133E-05
   0.169E-07 -.574E-07 -.612E+01   0.163E-12 -.719E-13 0.575E+01   0.176E-24 -.149E-24 0.368E+00   -.157E-12 0.345E-12 0.133E-05
   0.169E-07 -.574E-07 -.612E+01   0.142E-12 -.142E-12 0.575E+01   -.743E-25 -.103E-24 0.368E+00   0.503E-13 -.311E-12 0.133E-05
   0.169E-07 -.574E-07 -.612E+01   0.128E-12 -.817E-13 0.575E+01   -.125E-24 0.775E-25 0.368E+00   -.690E-13 -.243E-12 0.133E-05
   -.575E-07 0.169E-07 -.612E+01   -.172E-12 0.128E-12 0.575E+01   -.115E-24 -.582E-25 0.368E+00   0.257E-12 0.442E-12 0.133E-05
   -.575E-07 0.169E-07 -.612E+01   -.141E-12 0.128E-12 0.575E+01   0.147E-25 -.107E-24 0.368E+00   0.286E-13 0.346E-12 0.133E-05
   -.575E-07 0.169E-07 -.612E+01   -.207E-12 0.175E-12 0.575E+01   0.157E-24 -.323E-25 0.368E+00   0.316E-12 -.289E-12 0.133E-05
   -.575E-07 0.169E-07 -.612E+01   -.148E-12 0.175E-12 0.575E+01   -.112E-24 -.129E-24 0.368E+00   -.789E-13 -.277E-12 0.133E-05
 -----------------------------------------------------------------------------------------------
   -.123E-05 -.123E-05 -.129E+02   -.117E-12 -.407E-13 0.593E-12   -.954E-17 0.167E-14 0.129E+02   0.177E-12 0.196E-11 -.192E-03
 
 
 POSITION                                       TOTAL-FORCE (eV/Angst)
 -----------------------------------------------------------------------------------
      1.33974      1.32916      1.28995         0.000554     -0.000172     -0.000214
      6.59531      1.38416      1.28995         0.000554     -0.000172     -0.000214
      1.39473      6.58473      1.28995         0.000554     -0.000172     -0.000214
      6.65030      6.63972      1.28995         0.000554     -0.000172     -0.000214
      3.97082      3.98139      1.28995        -0.000554      0.000172     -0.000214
      9.22638      4.03639      1.28995        -0.000554      0.000172     -0.000214
      4.02581      9.23696      1.28995        -0.000554      0.000172     -0.000214
      9.28137      9.29195      1.28995        -0.000554      0.000172     -0.000214
      1.35361      3.94332      9.10266         0.000172     -0.000554     -0.000214
      6.60918      3.99831      9.10266         0.000172     -0.000554     -0.000214
      1.40860      9.19889      9.10266         0.000172     -0.000554     -0.000214
      6.66417      9.25388      9.10266         0.000172     -0.000554     -0.000214
      3.95695      1.36724      9.10266        -0.000172      0.000554     -0.000214
      9.21251      1.42223      9.10266        -0.000172      0.000554     -0.000214
      4.01194      6.62280      9.10266        -0.000172      0.000554     -0.000214
      9.26751      6.67780      9.10266        -0.000172      0.000554     -0.000214
      1.31554      1.32612      6.49843        -0.000554      0.000172     -0.000214
      6.57110      1.38111      6.49843        -0.000554      0.000172     -0.000214
      1.37053      6.58168      6.49843        -0.000554      0.000172     -0.000214
      6.62610      6.63667      6.49843        -0.000554      0.000172     -0.000214
      3.99502      3.98444      6.49843         0.000554     -0.000172     -0.000214
      9.25059      4.03943      6.49843         0.000554     -0.000172     -0.000214
      4.05001      9.24001      6.49843         0.000554     -0.000172     -0.000214
      9.30558      9.29500      6.49843         0.000554     -0.000172     -0.000214
      3.95390      1.34303      3.89419         0.000172     -0.000554     -0.000214
      9.20946      1.39802      3.89419         0.000172     -0.000554     -0.000214
      4.00889      6.59860      3.89419         0.000172     -0.000554     -0.000214
      9.26446      6.65359      3.89419         0.000172     -0.000554     -0.000214
      1.35666      3.96753      3.89419        -0.000172      0.000554     -0.000214
      6.61223      4.02252      3.89419        -0.000172      0.000554     -0.000214
      1.41165      9.22309      3.89419        -0.000172      0.000554     -0.000214
      6.66722      9.27808      3.89419        -0.000172      0.000554     -0.000214
      0.00000      0.00000      5.21884        -0.000000     -0.000000     -0.000521
      5.25557      0.05499      5.21884        -0.000000     -0.000000     -0.000521
      0.05499      5.25557      5.21884        -0.000000     -0.000000     -0.000521
      5.31056      5.31056      5.21884        -0.000000     -0.000000     -0.000521
      2.62778      0.02750      2.61460        -0.000000     -0.000000     -0.000521
      7.88335      0.08249      2.61460        -0.000000     -0.000000     -0.000521
      2.68277      5.28306      2.61460        -0.000000     -0.000000     -0.000521
      7.93834      5.33805      2.61460        -0.000000     -0.000000     -0.000521
      2.65528      2.65528      0.01036        -0.000000     -0.000000     -0.000521
      7.91085      2.71027      0.01036        -0.000000     -0.000000     -0.000521
      2.71027      7.91085      0.01036        -0.000000     -0.000000     -0.000521
      7.96584      7.96584      0.01036        -0.000000     -0.000000     -0.000521
      0.02750      2.62778      7.82308        -0.000000     -0.000000     -0.000521
      5.28306      2.68277      7.82308        -0.000000     -0.000000     -0.000521
      0.08249      7.88335      7.82308        -0.000000     -0.000000     -0.000521
      5.33805      7.93834      7.82308        -0.000000     -0.000000     -0.000521
      0.00000      0.00000      0.01397        -0.000000     -0.000000      0.000950
      5.25557      0.05499      0.01397        -0.000000     -0.000000      0.000950
      0.05499      5.25557      0.01397        -0.000000     -0.000000      0.000950
      5.31056      5.31056      0.01397        -0.000000     -0.000000      0.000950
      2.62778      0.02750      7.82668        -0.000000     -0.000000      0.000950
      7.88335      0.08249      7.82668        -0.000000     -0.000000      0.000950
      2.68277      5.28306      7.82668        -0.000000     -0.000000      0.000950
      7.93834      5.33805      7.82668        -0.000000     -0.000000      0.000950
      2.65528      2.65528      5.22244        -0.000000     -0.000000      0.000950
      7.91085      2.71027      5.22244        -0.000000     -0.000000      0.000950
      2.71027      7.91085      5.22244        -0.000000     -0.000000      0.000950
      7.96584      7.96584      5.22244        -0.000000     -0.000000      0.000950
      0.02750      2.62778      2.61821        -0.000000     -0.000000      0.000950
      5.28306      2.68277      2.61821        -0.000000     -0.000000      0.000950
      0.08249      7.88335      2.61821        -0.000000     -0.000000      0.000950
      5.33805      7.93834      2.61821        -0.000000     -0.000000      0.000950
 -----------------------------------------------------------------------------------
    total drift:                               -0.000001     -0.000001     -0.020803


--------------------------------------------------------------------------------------------------------



  FREE ENERGIE OF THE ION-ELECTRON SYSTEM (eV)
  ---------------------------------------------------
  free  energy   TOTEN  =      -328.07736322 eV

  energy  without entropy=     -328.07736322  energy(sigma->0) =     -328.07736322
 


--------------------------------------------------------------------------------------------------------


    POTLOK:  cpu time    0.1375: real time    0.1384


--------------------------------------------------------------------------------------------------------


 writing wavefunctions
     LOOP+:  cpu time 2031.8250: real time 2395.0429
    4ORBIT:  cpu time    0.0000: real time    0.0000
 


 total charge     
 
# of ion       s       p       d       tot
------------------------------------------
    1        1.313   2.410   0.000   3.724
    2        1.313   2.410   0.000   3.724
    3        1.313   2.410   0.000   3.724
    4        1.313   2.410   0.000   3.724
    5        1.313   2.410   0.000   3.724
    6        1.313   2.410   0.000   3.724
    7        1.313   2.410   0.000   3.724
    8        1.313   2.410   0.000   3.724
    9        1.313   2.410   0.000   3.724
   10        1.313   2.410   0.000   3.724
   11        1.313   2.410   0.000   3.724
   12        1.313   2.410   0.000   3.724
   13        1.313   2.410   0.000   3.724
   14        1.313   2.410   0.000   3.724
   15        1.313   2.410   0.000   3.724
   16        1.313   2.410   0.000   3.724
   17        1.313   2.410   0.000   3.724
   18        1.313   2.410   0.000   3.724
   19        1.313   2.410   0.000   3.724
   20        1.313   2.410   0.000   3.724
   21        1.313   2.410   0.000   3.724
   22        1.313   2.410   0.000   3.724
   23        1.313   2.410   0.000   3.724
   24        1.313   2.410   0.000   3.724
   25        1.313   2.410   0.000   3.724
   26        1.313   2.410   0.000   3.724
   27        1.313   2.410   0.000   3.724
   28        1.313   2.410   0.000   3.724
   29        1.313   2.410   0.000   3.724
   30        1.313   2.410   0.000   3.724
   31        1.313   2.410   0.000   3.724
   32        1.313   2.410   0.000   3.724
   33        0.260   6.202   8.916  15.378
   34        0.260   6.202   8.916  15.378
   35        0.260   6.202   8.916  15.378
   36        0.260   6.202   8.916  15.378
   37        0.260   6.202   8.917  15.378
   38        0.260   6.202   8.917  15.378
   39        0.260   6.202   8.917  15.378
   40        0.260   6.202   8.917  15.378
   41        0.260   6.202   8.916  15.378
   42        0.260   6.202   8.916  15.378
   43        0.260   6.202   8.916  15.378
   44        0.260   6.202   8.916  15.378
   45        0.260   6.202   8.917  15.378
   46        0.260   6.202   8.917  15.378
   47        0.260   6.202   8.917  15.378
   48        0.260   6.202   8.917  15.378
   49        0.350   6.351   5.820  12.521
   50        0.350   6.351   5.820  12.521
   51        0.350   6.351   5.820  12.521
   52        0.350   6.351   5.820  12.521
   53        0.350   6.351   5.820  12.521
   54        0.350   6.351   5.820  12.521
   55        0.350   6.351   5.820  12.521
   56        0.350   6.351   5.820  12.521
   57        0.350   6.351   5.820  12.521
   58        0.350   6.351   5.820  12.521
   59        0.350   6.351   5.820  12.521
   60        0.350   6.351   5.820  12.521
   61        0.350   6.351   5.820  12.521
   62        0.350   6.351   5.820  12.521
   63        0.350   6.351   5.820  12.521
   64        0.350   6.351   5.820  12.521
--------------------------------------------------
tot         51.789 277.976 235.781 565.547
 


 magnetization (x)
 
# of ion       s       p       d       tot
------------------------------------------
    1       -0.000  -0.005   0.000  -0.005
    2       -0.000  -0.005   0.000  -0.005
    3       -0.000  -0.005   0.000  -0.005
    4       -0.000  -0.005   0.000  -0.005
    5       -0.000  -0.005   0.000  -0.005
    6       -0.000  -0.005   0.000  -0.005
    7       -0.000  -0.005   0.000  -0.005
    8       -0.000  -0.005   0.000  -0.005
    9        0.000   0.005   0.000   0.005
   10        0.000   0.005   0.000   0.005
   11        0.000   0.005   0.000   0.005
   12        0.000   0.005   0.000   0.005
   13        0.000   0.005   0.000   0.005
   14        0.000   0.005   0.000   0.005
   15        0.000   0.005   0.000   0.005
   16        0.000   0.005   0.000   0.005
   17       -0.000  -0.005   0.000  -0.005
   18       -0.000  -0.005   0.000  -0.005
   19       -0.000  -0.005   0.000  -0.005
   20       -0.000  -0.005   0.000  -0.005
   21       -0.000  -0.005   0.000  -0.005
   22       -0.000  -0.005   0.000  -0.005
   23       -0.000  -0.005   0.000  -0.005
   24       -0.000  -0.005   0.000  -0.005
   25        0.000   0.005   0.000   0.005
   26        0.000   0.005   0.000   0.005
   27        0.000   0.005   0.000   0.005
   28        0.000   0.005   0.000   0.005
   29        0.000   0.005   0.000   0.005
   30        0.000   0.005   0.000   0.005
   31        0.000   0.005   0.000   0.005
   32        0.000   0.005   0.000   0.005
   33        0.000   0.000  -0.001   0.000
   34        0.000   0.000  -0.001   0.000
   35        0.000   0.000  -0.001   0.000
   36        0.000   0.000  -0.001   0.000
   37       -0.000  -0.000   0.001  -0.000
   38       -0.000  -0.000   0.001  -0.000
   39       -0.000  -0.000   0.001  -0.000
   40       -0.000  -0.000   0.001  -0.000
   41        0.000   0.000  -0.001   0.000
   42        0.000   0.000  -0.001   0.000
   43        0.000   0.000  -0.001   0.000
   44        0.000   0.000  -0.001   0.000
   45       -0.000  -0.000   0.001  -0.000
   46       -0.000  -0.000   0.001  -0.000
   47       -0.000  -0.000   0.001  -0.000
   48       -0.000  -0.000   0.001  -0.000
   49        0.020   0.054   3.671   3.744
   50        0.020   0.054   3.671   3.744
   51        0.020   0.054   3.671   3.744
   52        0.020   0.054   3.671   3.744
   53       -0.020  -0.054  -3.671  -3.744
   54       -0.020  -0.054  -3.671  -3.744
   55       -0.020  -0.054  -3.671  -3.744
   56       -0.020  -0.054  -3.671  -3.744
   57        0.020   0.054   3.671   3.744
   58        0.020   0.054   3.671   3.744
   59        0.020   0.054   3.671   3.744
   60        0.020   0.054   3.671   3.744
   61       -0.020  -0.054  -3.671  -3.744
   62       -0.020  -0.054  -3.671  -3.744
   63       -0.020  -0.054  -3.671  -3.744
   64       -0.020  -0.054  -3.671  -3.744
--------------------------------------------------
tot         -0.000   0.001  -0.000  -0.000
 

 total amount of memory used by VASP MPI-rank0   301249. kBytes
=======================================================================

   base      :      30000. kBytes
   nonl-proj :     175882. kBytes
   fftplans  :       4588. kBytes
   grid      :      69719. kBytes
   one-center:       1990. kBytes
   wavefun   :      19070. kBytes
 
  
  
 General timing and accounting informations for this job:
 ========================================================
  
                  Total CPU time used (sec):     2081.957
                            User time (sec):     2069.359
                          System time (sec):       12.598
                         Elapsed time (sec):     2447.158
  
                   Maximum memory used (kb):      668876.
                   Average memory used (kb):           0.
  
                          Minor page faults:       525027
                          Major page faults:         5500
                 Voluntary context switches:         8253
