 vasp.5.4.4.18Apr17-6-g9f103f2a35 (build Oct 30 2023 17:30:16) complex          
  
 executed on             LinuxIFC date 2024.06.29  18:38:23
 running on  256 total cores
 distrk:  each k-point on  256 cores,    1 groups
 distr:  one band on NCORES_PER_BAND=   1 cores,  256 groups


--------------------------------------------------------------------------------------------------------


 INCAR:
 POTCAR:    PAW_PBE S 06Sep2000                   
 POTCAR:     PAW_PBE Cu_pv 06Sep2000              
 POTCAR:     PAW_PBE Fe_pv 02Aug2007              

 ----------------------------------------------------------------------------- 
|                                                                             |
|           W    W    AA    RRRRR   N    N  II  N    N   GGGG   !!!           |
|           W    W   A  A   R    R  NN   N  II  NN   N  G    G  !!!           |
|           W    W  A    A  R    R  N N  N  II  N N  N  G       !!!           |
|           W WW W  AAAAAA  RRRRR   N  N N  II  N  N N  G  GGG   !            |
|           WW  WW  A    A  R   R   N   NN  II  N   NN  G    G                |
|           W    W  A    A  R    R  N    N  II  N    N   GGGG   !!!           |
|                                                                             |
|      For optimal performance we recommend to set                            |
|        NCORE= 4 - approx SQRT( number of cores)                             |
|      NCORE specifies how many cores store one orbital (NPAR=cpu/NCORE).     |
|      This setting can  greatly improve the performance of VASP for DFT.     |
|      The default,   NCORE=1            might be grossly inefficient         |
|      on modern multi-core architectures or massively parallel machines.     |
|      Do your own testing !!!!                                               |
|      Unfortunately you need to use the default for GW and RPA calculations. |
|      (for HF NCORE is supported but not extensively tested yet)             |
|                                                                             |
 ----------------------------------------------------------------------------- 

 POTCAR:    PAW_PBE S 06Sep2000                   
   SHA256 =  0fc7481fb0695f01bdc6462160264c5c84044ae9ec85a907d398b887a2bc3132 S/
   COPYR  = (c) Copyright 06Sep2000 Georg Kresse                                
   COPYR  = This file is part of the software VASP. Any use, copying, and all ot
   COPYR  = If you do not have a valid VASP license, you may not use, copy or di
   VRHFIN =S : s2p4                                                             
   LEXCH  = PE                                                                  
   EATOM  =   276.8230 eV,   20.3459 Ry                                         
                                                                                
   TITEL  = PAW_PBE S 06Sep2000                                                 
   LULTRA =        F    use ultrasoft PP ?                                      
   IUNSCR =        1    unscreen: 0-lin 1-nonlin 2-no                           
   RPACOR =    1.500    partial core radius                                     
   POMASS =   32.066; ZVAL   =    6.000    mass and valenz                      
   RCORE  =    1.900    outmost cutoff radius                                   
   RWIGS  =    2.200; RWIGS  =    1.164    wigner-seitz radius (au A)           
   ENMAX  =  258.689; ENMIN  =  194.016 eV                                      
   ICORE  =        2    local potential                                         
   LCOR   =        T    correct aug charges                                     
   LPAW   =        T    paw PP                                                  
   EAUG   =  335.092                                                            
   DEXC   =    0.000                                                            
   RMAX   =    1.942    core radius for proj-oper                               
   RAUG   =    1.300    factor for augmentation sphere                          
   RDEP   =    1.954    radius for radial grids                                 
   RDEPT  =    1.744    core radius for aug-charge                              
                                                                                
   Atomic configuration                                                         
    6 entries                                                                   
     n  l   j            E        occ.                                          
     1  0  0.50     -2405.8406   2.0000                                         
     2  0  0.50      -211.7007   2.0000                                         
     2  1  1.50      -156.4958   6.0000                                         
     3  0  0.50       -17.2562   2.0000                                         
     3  1  0.50        -7.0085   4.0000                                         
     3  2  1.50        -6.8029   0.0000                                         
   Description                                                                  
     l       E           TYP  RCUT    TYP  RCUT                                 
     0    -17.2561641     23  1.900                                             
     0    -15.8743224     23  1.900                                             
     1     -7.0085400     23  1.900                                             
     1     -2.7779785     23  1.900                                             
     2     -6.8029130     23  1.900                                             
  local pseudopotential read in
  partial core-charges read in
  partial kinetic energy density read in
  atomic valenz-charges read in
  non local Contribution for L=           0  read in
    real space projection operators read in
  non local Contribution for L=           0  read in
    real space projection operators read in
  non local Contribution for L=           1  read in
    real space projection operators read in
  non local Contribution for L=           1  read in
    real space projection operators read in
    PAW grid and wavefunctions read in
 
   number of l-projection  operators is LMAX  =           4
   number of lm-projection operators is LMMAX =           8
 
 POTCAR:     PAW_PBE Cu_pv 06Sep2000              
   SHA256 =  cb7b504e2ea725fe1f25c85a9ac77d4012ce94cd394135b722c4e25ec297f1cb Cu
   COPYR  = (c) Copyright 06Sep2000 Georg Kresse                                
   COPYR  = This file is part of the software VASP. Any use, copying, and all ot
   COPYR  = If you do not have a valid VASP license, you may not use, copy or di
   VRHFIN =Cu: d10 p1                                                           
   LEXCH  = PE                                                                  
   EATOM  =  4120.1201 eV,  302.8203 Ry                                         
                                                                                
   TITEL  = PAW_PBE Cu_pv 06Sep2000                                             
   LULTRA =        F    use ultrasoft PP ?                                      
   IUNSCR =        1    unscreen: 0-lin 1-nonlin 2-no                           
   RPACOR =    1.500    partial core radius                                     
   POMASS =   63.546; ZVAL   =   17.000    mass and valenz                      
   RCORE  =    2.000    outmost cutoff radius                                   
   RWIGS  =    2.000; RWIGS  =    1.058    wigner-seitz radius (au A)           
   ENMAX  =  368.648; ENMIN  =  276.486 eV                                      
   RCLOC  =    1.304    cutoff for local pot                                    
   LCOR   =        T    correct aug charges                                     
   LPAW   =        T    paw PP                                                  
   EAUG   =  758.233                                                            
   DEXC   =    0.000                                                            
   RMAX   =    2.046    core radius for proj-oper                               
   RAUG   =    1.300    factor for augmentation sphere                          
   RDEP   =    2.025    radius for radial grids                                 
   RDEPT  =    1.558    core radius for aug-charge                              
                                                                                
   Atomic configuration                                                         
    8 entries                                                                   
     n  l   j            E        occ.                                          
     1  0  0.50     -8850.2467   2.0000                                         
     2  0  0.50     -1062.3498   2.0000                                         
     2  1  1.50      -916.8226   6.0000                                         
     3  0  0.50      -114.6929   2.0000                                         
     3  1  1.50       -72.1325   6.0000                                         
     3  2  2.50        -5.0394  10.0000                                         
     4  0  0.50        -4.6097   1.0000                                         
     4  3  2.50        -1.3606   0.0000                                         
   Description                                                                  
     l       E           TYP  RCUT    TYP  RCUT                                 
     1    -72.1324777     23  1.700                                             
     1     -1.3605826     23  1.700                                             
     2     -5.0393776     23  2.000                                             
     2     -6.3999602     23  2.000                                             
     0     -4.6097062     23  1.800                                             
     0     14.1620818     23  1.800                                             
  local pseudopotential read in
  partial core-charges read in
  partial kinetic energy density read in
  atomic valenz-charges read in
  non local Contribution for L=           1  read in
    real space projection operators read in
  non local Contribution for L=           1  read in
    real space projection operators read in
  non local Contribution for L=           2  read in
    real space projection operators read in
  non local Contribution for L=           2  read in
    real space projection operators read in
  non local Contribution for L=           0  read in
    real space projection operators read in
  non local Contribution for L=           0  read in
    real space projection operators read in
    PAW grid and wavefunctions read in
 
   number of l-projection  operators is LMAX  =           6
   number of lm-projection operators is LMMAX =          18
 
 POTCAR:     PAW_PBE Fe_pv 02Aug2007              
   SHA256 =  5d22e414b1f82158bf2c7ecb8b97b28fd0923e48cadc1c3bf74d524558f5dd32 Fe
   COPYR  = (c) Copyright 02Aug2007 Georg Kresse                                
   COPYR  = This file is part of the software VASP. Any use, copying, and all ot
   COPYR  = If you do not have a valid VASP license, you may not use, copy or di
   VRHFIN =Fe:  3pd7s1                                                          
   LEXCH  = PE                                                                  
   EATOM  =  2457.4239 eV,  180.6156 Ry                                         
                                                                                
   TITEL  = PAW_PBE Fe_pv 02Aug2007                                             
   LULTRA =        F    use ultrasoft PP ?                                      
   IUNSCR =        1    unscreen: 0-lin 1-nonlin 2-no                           
   RPACOR =    1.750    partial core radius                                     
   POMASS =   55.847; ZVAL   =   14.000    mass and valenz                      
   RCORE  =    2.200    outmost cutoff radius                                   
   RWIGS  =    2.200; RWIGS  =    1.164    wigner-seitz radius (au A)           
   ENMAX  =  293.238; ENMIN  =  219.928 eV                                      
   ICORE  =        3    local potential                                         
   LCOR   =        T    correct aug charges                                     
   LPAW   =        T    paw PP                                                  
   EAUG   =  578.342                                                            
   DEXC   =    0.000                                                            
   RMAX   =    2.249    core radius for proj-oper                               
   RAUG   =    1.300    factor for augmentation sphere                          
   RDEP   =    2.296    radius for radial grids                                 
   RDEPT  =    1.766    core radius for aug-charge                              
                                                                                
   Atomic configuration                                                         
    8 entries                                                                   
     n  l   j            E        occ.                                          
     1  0  0.50     -6993.8440   2.0000                                         
     2  0  0.50      -814.6047   2.0000                                         
     2  1  1.50      -693.3689   6.0000                                         
     3  0  0.50       -89.4732   2.0000                                         
     3  1  1.50       -55.6373   6.0000                                         
     3  2  2.50        -3.8151   7.0000                                         
     4  0  0.50        -4.2551   1.0000                                         
     4  3  2.50        -1.3606   0.0000                                         
   Description                                                                  
     l       E           TYP  RCUT    TYP  RCUT                                 
     1    -55.6372668     23  2.000                                             
     1     -5.4423304     23  2.000                                             
     2     -3.8151096     23  2.200                                             
     2     -5.1756922     23  2.200                                             
     0     -4.2550951     23  2.200                                             
     0     27.2116520     23  2.200                                             
     3     -1.3605826     23  2.200                                             
  local pseudopotential read in
  partial core-charges read in
  partial kinetic energy density read in
  atomic valenz-charges read in
  non local Contribution for L=           1  read in
    real space projection operators read in
  non local Contribution for L=           1  read in
    real space projection operators read in
  non local Contribution for L=           2  read in
    real space projection operators read in
  non local Contribution for L=           2  read in
    real space projection operators read in
  non local Contribution for L=           0  read in
    real space projection operators read in
  non local Contribution for L=           0  read in
    real space projection operators read in
    PAW grid and wavefunctions read in
 
   number of l-projection  operators is LMAX  =           6
   number of lm-projection operators is LMMAX =          18
 

 ----------------------------------------------------------------------------- 
|                                                                             |
|  ADVICE TO THIS USER RUNNING 'VASP/VAMP'   (HEAR YOUR MASTER'S VOICE ...):  |
|                                                                             |
|      You have a (more or less) 'large supercell' and for larger cells       |
|      it might be more efficient to use real space projection opertators     |
|      So try LREAL= Auto  in the INCAR   file.                               |
|      Mind:          For very  accurate calculation you might also keep the  |
|      reciprocal projection scheme          (i.e. LREAL=.FALSE.)             |
|                                                                             |
 ----------------------------------------------------------------------------- 


 ----------------------------------------------------------------------------- 
|                                                                             |
|  ADVICE TO THIS USER RUNNING 'VASP/VAMP'   (HEAR YOUR MASTER'S VOICE ...):  |
|                                                                             |
|      You enforced a specific xc-type in the INCAR file,                     |
|      a different type was found on the POTCAR file                          |
|          I HOPE YOU KNOW, WHAT YOU ARE  DOING                               |
|                                                                             |
 ----------------------------------------------------------------------------- 

  PAW_PBE S 06Sep2000                   :
 energy of atom  1       EATOM= -276.8230
 kinetic energy error for atom=    0.0007 (will be added to EATOM!!)
   PAW_PBE Cu_pv 06Sep2000              :
 energy of atom  2       EATOM=-4120.1201
 kinetic energy error for atom=    0.0094 (will be added to EATOM!!)
   PAW_PBE Fe_pv 02Aug2007              :
 energy of atom  3       EATOM=-2457.4239
 kinetic energy error for atom=    0.0025 (will be added to EATOM!!)
 
 
 POSCAR: Fe16 Cu16 S32                           
  positions in direct lattice
  velocities in cartesian coordinates
 exchange correlation table for  LEXCH =       14
   RHO(1)=    0.500       N(1)  =     2000
   RHO(2)=  100.500       N(2)  =     4000
 


--------------------------------------------------------------------------------------------------------


 ion  position               nearest neighbor table
   1  0.126  0.125  0.124-  37 2.26  41 2.26  61 2.27  49 2.28
   2  0.626  0.125  0.124-  38 2.26  42 2.26  62 2.27  50 2.28
   3  0.126  0.625  0.124-  39 2.26  43 2.26  63 2.27  51 2.28
   4  0.626  0.625  0.124-  40 2.26  44 2.26  64 2.27  52 2.28
   5  0.374  0.375  0.124-  39 2.26  41 2.26  62 2.27  52 2.28
   6  0.874  0.375  0.124-  40 2.26  42 2.26  61 2.27  51 2.28
   7  0.374  0.875  0.124-  37 2.26  43 2.26  64 2.27  50 2.28
   8  0.874  0.875  0.124-  38 2.26  44 2.26  63 2.27  49 2.28
   9  0.125  0.374  0.874-  41 2.26  45 2.26  51 2.27  55 2.28
  10  0.625  0.374  0.874-  42 2.26  46 2.26  52 2.27  56 2.28
  11  0.125  0.874  0.874-  43 2.26  47 2.26  49 2.27  53 2.28
  12  0.625  0.874  0.874-  44 2.26  48 2.26  50 2.27  54 2.28
  13  0.375  0.126  0.874-  41 2.26  46 2.26  50 2.27  53 2.28
  14  0.875  0.126  0.874-  42 2.26  45 2.26  49 2.27  54 2.28
  15  0.375  0.626  0.874-  43 2.26  48 2.26  52 2.27  55 2.28
  16  0.875  0.626  0.874-  44 2.26  47 2.26  51 2.27  56 2.28
  17  0.124  0.125  0.624-  45 2.26  33 2.26  53 2.27  57 2.28
  18  0.624  0.125  0.624-  46 2.26  34 2.26  54 2.27  58 2.28
  19  0.124  0.625  0.624-  47 2.26  35 2.26  55 2.27  59 2.28
  20  0.624  0.625  0.624-  48 2.26  36 2.26  56 2.27  60 2.28
  21  0.376  0.375  0.624-  46 2.26  36 2.26  55 2.27  57 2.28
  22  0.876  0.375  0.624-  45 2.26  35 2.26  56 2.27  58 2.28
  23  0.376  0.875  0.624-  48 2.26  34 2.26  53 2.27  59 2.28
  24  0.876  0.875  0.624-  47 2.26  33 2.26  54 2.27  60 2.28
  25  0.375  0.124  0.374-  34 2.26  37 2.26  57 2.27  62 2.28
  26  0.875  0.124  0.374-  33 2.26  38 2.26  58 2.27  61 2.28
  27  0.375  0.624  0.374-  36 2.26  39 2.26  59 2.27  64 2.28
  28  0.875  0.624  0.374-  35 2.26  40 2.26  60 2.27  63 2.28
  29  0.125  0.376  0.374-  35 2.26  39 2.26  57 2.27  61 2.28
  30  0.625  0.376  0.374-  36 2.26  40 2.26  58 2.27  62 2.28
  31  0.125  0.876  0.374-  33 2.26  37 2.26  59 2.27  63 2.28
  32  0.625  0.876  0.374-  34 2.26  38 2.26  60 2.27  64 2.28
  33  0.000  0.000  0.501-  26 2.26  31 2.26  17 2.26  24 2.26
  34  0.500  0.000  0.501-  25 2.26  32 2.26  18 2.26  23 2.26
  35  0.000  0.500  0.501-  28 2.26  29 2.26  19 2.26  22 2.26
  36  0.500  0.500  0.501-  27 2.26  30 2.26  20 2.26  21 2.26
  37  0.250  0.000  0.251-   1 2.26   7 2.26  25 2.26  31 2.26
  38  0.750  0.000  0.251-   2 2.26   8 2.26  26 2.26  32 2.26
  39  0.250  0.500  0.251-   3 2.26   5 2.26  27 2.26  29 2.26
  40  0.750  0.500  0.251-   4 2.26   6 2.26  28 2.26  30 2.26
  41  0.250  0.250  0.001-   9 2.26  13 2.26   1 2.26   5 2.26
  42  0.750  0.250  0.001-  10 2.26  14 2.26   2 2.26   6 2.26
  43  0.250  0.750  0.001-  11 2.26  15 2.26   3 2.26   7 2.26
  44  0.750  0.750  0.001-  12 2.26  16 2.26   4 2.26   8 2.26
  45  0.000  0.250  0.751-  17 2.26  22 2.26   9 2.26  14 2.26
  46  0.500  0.250  0.751-  18 2.26  21 2.26  10 2.26  13 2.26
  47  0.000  0.750  0.751-  19 2.26  24 2.26  11 2.26  16 2.26
  48  0.500  0.750  0.751-  20 2.26  23 2.26  12 2.26  15 2.26
  49  0.000  0.000  0.001-  11 2.27  14 2.27   1 2.28   8 2.28
  50  0.500  0.000  0.001-  12 2.27  13 2.27   2 2.28   7 2.28
  51  0.000  0.500  0.001-   9 2.27  16 2.27   3 2.28   6 2.28
  52  0.500  0.500  0.001-  10 2.27  15 2.27   4 2.28   5 2.28
  53  0.250  0.000  0.751-  17 2.27  23 2.27  11 2.28  13 2.28
  54  0.750  0.000  0.751-  18 2.27  24 2.27  12 2.28  14 2.28
  55  0.250  0.500  0.751-  19 2.27  21 2.27   9 2.28  15 2.28
  56  0.750  0.500  0.751-  20 2.27  22 2.27  10 2.28  16 2.28
  57  0.250  0.250  0.501-  25 2.27  29 2.27  17 2.28  21 2.28
  58  0.750  0.250  0.501-  26 2.27  30 2.27  18 2.28  22 2.28
  59  0.250  0.750  0.501-  27 2.27  31 2.27  19 2.28  23 2.28
  60  0.750  0.750  0.501-  28 2.27  32 2.27  20 2.28  24 2.28
  61  0.000  0.250  0.251-   1 2.27   6 2.27  26 2.28  29 2.28
  62  0.500  0.250  0.251-   2 2.27   5 2.27  25 2.28  30 2.28
  63  0.000  0.750  0.251-   3 2.27   8 2.27  28 2.28  31 2.28
  64  0.500  0.750  0.251-   4 2.27   7 2.27  27 2.28  32 2.28
 
  LATTYP: Found a base centered orthorhombic cell.
 ALAT       =    14.7365027139
 B/A-ratio  =     1.0175910803
 C/A-ratio  =     0.7067870310
  
  Lattice vectors:
  
 A1 = (  10.5119330000,   0.0916520000,   0.0000000000)
 A2 = (  -0.0916520000, -10.5119330000,   0.0000000000)
 A3 = (   0.0000000000,   0.0000000000, -10.4155690000)


Analysis of symmetry for initial positions (statically):
=====================================================================
 Subroutine PRICEL returns following result:
 
  LATTYP: Found a face centered orthorhombic cell.
 ALAT       =     7.3682513570
 B/A-ratio  =     1.0175910803
 C/A-ratio  =     1.4135740619
  
  Lattice vectors:
  
 A1 = (  -2.6508962500,  -2.6508962500,   5.2077845000)
 A2 = (  -2.6050702500,   2.6050702500,   5.2077845000)
 A3 = (  -5.2559665000,  -0.0458260000,   0.0000000000)
 
   8 primitive cells build up your supercell.
 

 Routine SETGRP: Setting up the symmetry group for a 
 base centered orthorhombic supercell.


 Subroutine GETGRP returns: Found  4 space group operations
 (whereof  2 operations were pure point group operations)
 out of a pool of  8 trial point group operations.


The static configuration has the point symmetry C_2 .
 The point group associated with its full space group is C_2v.


Analysis of symmetry for dynamics (positions and initial velocities):
=====================================================================
 Subroutine PRICEL returns following result:
 
  LATTYP: Found a face centered orthorhombic cell.
 ALAT       =     7.3682513570
 B/A-ratio  =     1.0175910803
 C/A-ratio  =     1.4135740619
  
  Lattice vectors:
  
 A1 = (  -2.6508962500,  -2.6508962500,   5.2077845000)
 A2 = (  -2.6050702500,   2.6050702500,   5.2077845000)
 A3 = (  -5.2559665000,  -0.0458260000,   0.0000000000)
 
   8 primitive cells build up your supercell.
 

 Routine SETGRP: Setting up the symmetry group for a 
 base centered orthorhombic supercell.


 Subroutine GETGRP returns: Found  4 space group operations
 (whereof  2 operations were pure point group operations)
 out of a pool of  8 trial point group operations.


The dynamic configuration has the point symmetry C_2 .
 The point group associated with its full space group is C_2v.


Analysis of structural, dynamic, and magnetic symmetry:
=====================================================================
 Subroutine PRICEL returns following result:
 
  LATTYP: Found a face centered orthorhombic cell.
 ALAT       =     7.3682513570
 B/A-ratio  =     1.0175910803
 C/A-ratio  =     1.4135740619
  
  Lattice vectors:
  
 A1 = (  -2.6508962500,  -2.6508962500,   5.2077845000)
 A2 = (  -2.6050702500,   2.6050702500,   5.2077845000)
 A3 = (  -5.2559665000,  -0.0458260000,   0.0000000000)
 
   8 primitive cells build up your supercell.
 

 Routine SETGRP: Setting up the symmetry group for a 
 base centered orthorhombic supercell.


 Subroutine GETGRP returns: Found  4 space group operations
 (whereof  2 operations were pure point group operations)
 out of a pool of  8 trial point group operations.


The magnetic configuration has the point symmetry C_2 .
 The point group associated with its full space group is C_2v.


 Subroutine INISYM returns: Found  4 space group operations
 (whereof  2 operations are pure point group operations),
 and found     8 'primitive' translations

 
 
 KPOINTS: Automatic mesh                          

Automatic generation of k-mesh.
Space group operators:
 irot       det(A)        alpha          n_x          n_y          n_z        tau_x        tau_y        tau_z
    1     1.000000     0.000000     1.000000     0.000000     0.000000     0.000000     0.000000     0.000000
    2     1.000000   180.000000     0.000000     0.000000     1.000000     0.000000     0.000000     0.000000
    3    -1.000000   180.000000     0.707107     0.707107     0.000000    -0.750000    -0.000000     0.750000
    4    -1.000000   180.000000     0.707107    -0.707107     0.000000    -0.750000    -0.000000     0.750000
 
 Subroutine IBZKPT returns following result:
 ===========================================
 
 Found      6 irreducible k-points:
 
 Following reciprocal coordinates:
            Coordinates               Weight
  0.000000  0.000000  0.000000      1.000000
  0.500000  0.000000  0.000000      2.000000
  0.500000  0.500000  0.000000      1.000000
  0.000000  0.000000  0.500000      1.000000
  0.500000  0.000000  0.500000      2.000000
  0.500000  0.500000  0.500000      1.000000
 
 Following cartesian coordinates:
            Coordinates               Weight
  0.000000  0.000000  0.000000      1.000000
  0.047569 -0.000415  0.000000      2.000000
  0.047154  0.047154  0.000000      1.000000
  0.000000  0.000000  0.048005      1.000000
  0.047569 -0.000415  0.048005      2.000000
  0.047154  0.047154  0.048005      1.000000
 
 TETIRR: Found     12 inequivalent tetrahedra from       48
 
 Subroutine IBZKPT_HF returns following result:
 ==============================================
 
 Found      8 k-points in 1st BZ
 the following      8 k-points will be used (e.g. in the exchange kernel)
 Following reciprocal coordinates:   # in IRBZ
  0.000000  0.000000  0.000000    0.12500000   1 t-inv F
  0.500000  0.000000  0.000000    0.12500000   2 t-inv F
  0.500000  0.500000  0.000000    0.12500000   3 t-inv F
  0.000000  0.000000  0.500000    0.12500000   4 t-inv F
  0.500000  0.000000  0.500000    0.12500000   5 t-inv F
  0.500000  0.500000  0.500000    0.12500000   6 t-inv F
 -0.000000 -0.500000  0.000000    0.12500000   2 t-inv F spinflp
 -0.000000 -0.500000  0.500000    0.12500000   5 t-inv F spinflp


--------------------------------------------------------------------------------------------------------




 Dimension of arrays:
   k-points           NKPTS =      6   k-points in BZ     NKDIM =      6   number of bands    NBANDS=    512
   number of dos      NEDOS =    301   number of ions     NIONS =     64
   non local maximal  LDIM  =      6   non local SUM 2l+1 LMDIM =     18
   total plane-waves  NPLWV = 829440
   max r-space proj   IRMAX =      1   max aug-charges    IRDMAX=  22903
   dimension x,y,z NGX =    96 NGY =   96 NGZ =   90
   dimension x,y,z NGXF=   192 NGYF=  192 NGZF=  180
   support grid    NGXF=   192 NGYF=  192 NGZF=  180
   ions per type =              32  16  16
   NGX,Y,Z   is equivalent  to a cutoff of  15.18, 15.18, 14.37 a.u.
   NGXF,Y,Z  is equivalent  to a cutoff of  30.36, 30.36, 28.73 a.u.

 SYSTEM =  CuFeS2                                  
 POSCAR =  Fe16 Cu16 S32                           

 Startparameter for this run:
   NWRITE =      2    write-flag & timer
   PREC   = accura    normal or accurate (medium, high low for compatibility)
   ISTART =      0    job   : 0-new  1-cont  2-samecut
   ICHARG =      1    charge: 1-file 2-atom 10-const
   ISPIN  =      2    spin polarized calculation?
   LNONCOLLINEAR =      F non collinear calculations
   LSORBIT =      F    spin-orbit coupling
   INIWAV =      1    electr: 0-lowe 1-rand  2-diag
   LASPH  =      F    aspherical Exc in radial PAW
   METAGGA=      F    non-selfconsistent MetaGGA calc.

 Electronic Relaxation 1
   ENCUT  =  700.0 eV  51.45 Ry    7.17 a.u.  22.68 22.68 22.47*2*pi/ulx,y,z
   ENINI  =  700.0     initial cutoff
   ENAUG  =  758.2 eV  augmentation charge cutoff
   NELM   =    500;   NELMIN=  2; NELMDL=  0     # of ELM steps 
   EDIFF  = 0.1E-07   stopping-criterion for ELM
   LREAL  =      F    real-space projection
   NLSPLINE    = F    spline interpolate recip. space projectors
   LCOMPAT=      F    compatible to vasp.4.4
   GGA_COMPAT  = T    GGA compatible to vasp.4.4-vasp.4.6
   LMAXPAW     = -100 max onsite density
   LMAXMIX     =    4 max onsite mixed and CHGCAR
   VOSKOWN=      0    Vosko Wilk Nusair interpolation
   ROPT   =    0.00000   0.00000   0.00000
 Ionic relaxation
   EDIFFG = -.1E-04   stopping-criterion for IOM
   NSW    =      0    number of steps for IOM
   NBLOCK =      1;   KBLOCK =      1    inner block; outer block 
   IBRION =     -1    ionic relax: 0-MD 1-quasi-New 2-CG
   NFREE  =      0    steps in history (QN), initial steepest desc. (CG)
   ISIF   =      2    stress and relaxation
   IWAVPR =     10    prediction:  0-non 1-charg 2-wave 3-comb
   ISYM   =      2    0-nonsym 1-usesym 2-fastsym
   LCORR  =      T    Harris-Foulkes like correction to forces

   POTIM  = 0.5000    time-step for ionic-motion
   TEIN   =    0.0    initial temperature
   TEBEG  =    0.0;   TEEND  =   0.0 temperature during run
   SMASS  =  -3.00    Nose mass-parameter (am)
   estimated Nose-frequenzy (Omega)   =  0.10E-29 period in steps =****** mass=  -0.253E-26a.u.
   SCALEE = 1.0000    scale energy and forces
   NPACO  =    256;   APACO  = 16.0  distance and # of slots for P.C.
   PSTRESS=    0.0 pullay stress

  Mass of Ions in am
   POMASS =  32.07 63.55 55.85
  Ionic Valenz
   ZVAL   =   6.00 17.00 14.00
  Atomic Wigner-Seitz radii
   RWIGS  =  -1.00 -1.00 -1.00
  virtual crystal weights 
   VCA    =   1.00  1.00  1.00
   NELECT =     688.0000    total number of electrons
   NUPDOWN=      -1.0000    fix difference up-down

 DOS related values:
   EMIN   =  10.00;   EMAX   =-10.00  energy-range for DOS
   EFERMI =   0.00
   ISMEAR =    -5;   SIGMA  =   0.03  broadening in eV -4-tet -1-fermi 0-gaus

 Electronic relaxation 2 (details)
   IALGO  =     38    algorithm
   LDIAG  =      T    sub-space diagonalisation (order eigenvalues)
   LSUBROT=      F    optimize rotation matrix (better conditioning)
   TURBO    =      0    0=normal 1=particle mesh
   IRESTART =      0    0=no restart 2=restart with 2 vectors
   NREBOOT  =      0    no. of reboots
   NMIN     =      0    reboot dimension
   EREF     =   0.00    reference energy to select bands
   IMIX   =      4    mixing-type and parameters
     AMIX     =   0.40;   BMIX     =  1.00
     AMIX_MAG =   1.60;   BMIX_MAG =  1.00
     AMIN     =   0.10
     WC   =   100.;   INIMIX=   1;  MIXPRE=   1;  MAXMIX= -45

 Intra band minimization:
   WEIMIN = 0.0000     energy-eigenvalue tresh-hold
   EBREAK =  0.49E-11  absolut break condition
   DEPER  =   0.30     relativ break condition  

   TIME   =   0.40     timestep for ELM

  volume/ion in A,a.u.               =      17.98       121.35
  Fermi-wavevector in a.u.,A,eV,Ry     =   1.379111  2.606142 25.877566  1.901947
  Thomas-Fermi vector in A             =   2.504111
 
 Write flags
   LWAVE        =      T    write WAVECAR
   LDOWNSAMPLE  =      F    k-point downsampling of WAVECAR
   LCHARG       =      T    write CHGCAR
   LVTOT        =      F    write LOCPOT, total local potential
   LVHAR        =      F    write LOCPOT, Hartree potential only
   LELF         =      F    write electronic localiz. function (ELF)
   LORBIT       =     11    0 simple, 1 ext, 2 COOP (PROOUT), +10 PAW based schemes


 Dipole corrections
   LMONO  =      F    monopole corrections only (constant potential shift)
   LDIPOL =      F    correct potential (dipole corrections)
   IDIPOL =      0    1-x, 2-y, 3-z, 4-all directions 
   EPSILON=  1.0000000 bulk dielectric constant

 LDA+U is selected, type is set to LDAUTYPE =  2
   angular momentum for each species LDAUL =     2    2    2
   U (eV)           for each species LDAUU =   0.0  0.1  4.7
   J (eV)           for each species LDAUJ =   0.0  0.0  0.0
 Exchange correlation treatment:
   GGA     =    PS    GGA type
   LEXCH   =    14    internal setting for exchange type
   VOSKOWN=      0    Vosko Wilk Nusair interpolation
   LHFCALC =     F    Hartree Fock is set to
   LHFONE  =     F    Hartree Fock one center treatment
   AEXX    =    0.0000 exact exchange contribution

 Linear response parameters
   LEPSILON=     F    determine dielectric tensor
   LRPA    =     F    only Hartree local field effects (RPA)
   LNABLA  =     F    use nabla operator in PAW spheres
   LVEL    =     F    velocity operator in full k-point grid
   LINTERFAST=   F  fast interpolation
   KINTER  =     0    interpolate to denser k-point grid
   CSHIFT  =0.1000    complex shift for real part using Kramers Kronig
   OMEGAMAX=  -1.0    maximum frequency
   DEG_THRESHOLD= 0.2000000E-02 threshold for treating states as degnerate
   RTIME   =   -0.100 relaxation time in fs
  (WPLASMAI=    0.000 imaginary part of plasma frequency in eV, 0.658/RTIME)
   DFIELD  = 0.0000000 0.0000000 0.0000000 field for delta impulse in time
 
 Orbital magnetization related:
   ORBITALMAG=     F  switch on orbital magnetization
   LCHIMAG   =     F  perturbation theory with respect to B field
   DQ        =  0.001000  dq finite difference perturbation B field
   LLRAUG    =     F  two centre corrections for induced B field

 PEAD related settings:
   LPEAD      =     T    switch on PEAD
   IPEAD      =     4    finite difference order for dpsi/dk
   LCALCPOL   =     T    calculate macroscopic polarization
   LCALCEPS   =     F    calculate dielectric tensor
   EFIELD_PEAD=    0.0000    0.0000    0.0000
   SKIP_EDOTP =     F
   LRPA       =     F
   SKIP_SCF   =     F


--------------------------------------------------------------------------------------------------------


 Static calculation
 charge density and potential will be updated during run
 spin polarized calculation
 Variant of blocked Davidson
 Davidson routine will perform the subspace rotation
 perform sub-space diagonalisation
    after iterative eigenvector-optimisation
 modified Broyden-mixing scheme, WC =      100.0
 initial mixing is a Kerker type mixing with AMIX =  0.4000 and BMIX =      1.0000
 Hartree-type preconditioning will be used
 using additional bands          168
 reciprocal scheme for non local part
 use partial core corrections
 calculate Harris-corrections to forces 
   (improved forces if not selfconsistent)
 use gradient corrections 
 use of overlap-Matrix (Vanderbilt PP)
 Fermi weights with tetrahedron method with Bloechl corrections


--------------------------------------------------------------------------------------------------------


  energy-cutoff  :      700.00
  volume of cell :     1150.84
      direct lattice vectors                 reciprocal lattice vectors
    10.511933000  0.091652000  0.000000000     0.095137214 -0.000829487  0.000000000
     0.091652000 10.511933000  0.000000000    -0.000829487  0.095137214  0.000000000
     0.000000000  0.000000000 10.415569000     0.000000000  0.000000000  0.096010117

  length of vectors
    10.512332543 10.512332543 10.415569000     0.095140830  0.095140830  0.096010117


 
 k-points in units of 2pi/SCALE and weight: Automatic mesh                          
   0.00000000  0.00000000  0.00000000       0.125
   0.04756861 -0.00041474  0.00000000       0.250
   0.04715386  0.04715386  0.00000000       0.125
   0.00000000  0.00000000  0.04800506       0.125
   0.04756861 -0.00041474  0.04800506       0.250
   0.04715386  0.04715386  0.04800506       0.125
 
 k-points in reciprocal lattice and weights: Automatic mesh                          
   0.00000000  0.00000000  0.00000000       0.125
   0.50000000  0.00000000  0.00000000       0.250
   0.50000000  0.50000000  0.00000000       0.125
   0.00000000  0.00000000  0.50000000       0.125
   0.50000000  0.00000000  0.50000000       0.250
   0.50000000  0.50000000  0.50000000       0.125
 
 position of ions in fractional coordinates (direct lattice) 
   0.12614600  0.12510100  0.12403300
   0.62614600  0.12510100  0.12403300
   0.12614600  0.62510100  0.12403300
   0.62614600  0.62510100  0.12403300
   0.37385400  0.37489900  0.12403300
   0.87385400  0.37489900  0.12403300
   0.37385400  0.87489900  0.12403300
   0.87385400  0.87489900  0.12403300
   0.12489900  0.37385400  0.87403300
   0.62489900  0.37385400  0.87403300
   0.12489900  0.87385400  0.87403300
   0.62489900  0.87385400  0.87403300
   0.37510100  0.12614600  0.87403300
   0.87510100  0.12614600  0.87403300
   0.37510100  0.62614600  0.87403300
   0.87510100  0.62614600  0.87403300
   0.12385400  0.12489900  0.62403300
   0.62385400  0.12489900  0.62403300
   0.12385400  0.62489900  0.62403300
   0.62385400  0.62489900  0.62403300
   0.37614600  0.37510100  0.62403300
   0.87614600  0.37510100  0.62403300
   0.37614600  0.87510100  0.62403300
   0.87614600  0.87510100  0.62403300
   0.37489900  0.12385400  0.37403300
   0.87489900  0.12385400  0.37403300
   0.37489900  0.62385400  0.37403300
   0.87489900  0.62385400  0.37403300
   0.12510100  0.37614600  0.37403300
   0.62510100  0.37614600  0.37403300
   0.12510100  0.87614600  0.37403300
   0.62510100  0.87614600  0.37403300
   0.00000000  0.00000000  0.50083900
   0.50000000  0.00000000  0.50083900
   0.00000000  0.50000000  0.50083900
   0.50000000  0.50000000  0.50083900
   0.25000000  0.00000000  0.25083900
   0.75000000  0.00000000  0.25083900
   0.25000000  0.50000000  0.25083900
   0.75000000  0.50000000  0.25083900
   0.25000000  0.25000000  0.00083900
   0.75000000  0.25000000  0.00083900
   0.25000000  0.75000000  0.00083900
   0.75000000  0.75000000  0.00083900
   0.00000000  0.25000000  0.75083900
   0.50000000  0.25000000  0.75083900
   0.00000000  0.75000000  0.75083900
   0.50000000  0.75000000  0.75083900
   0.00000000  0.00000000  0.00109500
   0.50000000  0.00000000  0.00109500
   0.00000000  0.50000000  0.00109500
   0.50000000  0.50000000  0.00109500
   0.25000000  0.00000000  0.75109500
   0.75000000  0.00000000  0.75109500
   0.25000000  0.50000000  0.75109500
   0.75000000  0.50000000  0.75109500
   0.25000000  0.25000000  0.50109500
   0.75000000  0.25000000  0.50109500
   0.25000000  0.75000000  0.50109500
   0.75000000  0.75000000  0.50109500
   0.00000000  0.25000000  0.25109500
   0.50000000  0.25000000  0.25109500
   0.00000000  0.75000000  0.25109500
   0.50000000  0.75000000  0.25109500
 
 position of ions in cartesian coordinates  (Angst):
   1.33750406  1.32661486  1.29187427
   6.59347056  1.37244086  1.29187427
   1.38333006  6.58258136  1.29187427
   6.63929656  6.62840736  1.29187427
   3.96428844  3.97517764  1.29187427
   9.22025494  4.02100364  1.29187427
   4.01011444  9.23114414  1.29187427
   9.26608094  9.27697014  1.29187427
   1.34719439  3.94137544  9.10355102
   6.60316089  3.98720144  9.10355102
   1.39302039  9.19734194  9.10355102
   6.64898689  9.24316794  9.10355102
   3.95459811  1.36041706  9.10355102
   9.21056461  1.40624306  9.10355102
   4.00042411  6.61638356  9.10355102
   9.25639061  6.66220956  9.10355102
   1.31339219  1.32428139  6.49965877
   6.56935869  1.37010739  6.49965877
   1.35921819  6.58024789  6.49965877
   6.61518469  6.62607389  6.49965877
   3.98840031  3.97751111  6.49965877
   9.24436681  4.02333711  6.49965877
   4.03422631  9.23347761  6.49965877
   9.29019281  9.27930361  6.49965877
   3.95226464  1.33630519  3.89576652
   9.20823114  1.38213119  3.89576652
   3.99809064  6.59227169  3.89576652
   9.25405714  6.63809769  3.89576652
   1.34952786  3.96548731  3.89576652
   6.60549436  4.01131331  3.89576652
   1.39535386  9.22145381  3.89576652
   6.65132036  9.26727981  3.89576652
   0.00000000  0.00000000  5.21652316
   5.25596650  0.04582600  5.21652316
   0.04582600  5.25596650  5.21652316
   5.30179250  5.30179250  5.21652316
   2.62798325  0.02291300  2.61263091
   7.88394975  0.06873900  2.61263091
   2.67380925  5.27887950  2.61263091
   7.92977575  5.32470550  2.61263091
   2.65089625  2.65089625  0.00873866
   7.90686275  2.69672225  0.00873866
   2.69672225  7.90686275  0.00873866
   7.95268875  7.95268875  0.00873866
   0.02291300  2.62798325  7.82041541
   5.27887950  2.67380925  7.82041541
   0.06873900  7.88394975  7.82041541
   5.32470550  7.92977575  7.82041541
   0.00000000  0.00000000  0.01140505
   5.25596650  0.04582600  0.01140505
   0.04582600  5.25596650  0.01140505
   5.30179250  5.30179250  0.01140505
   2.62798325  0.02291300  7.82308180
   7.88394975  0.06873900  7.82308180
   2.67380925  5.27887950  7.82308180
   7.92977575  5.32470550  7.82308180
   2.65089625  2.65089625  5.21918955
   7.90686275  2.69672225  5.21918955
   2.69672225  7.90686275  5.21918955
   7.95268875  7.95268875  5.21918955
   0.02291300  2.62798325  2.61529730
   5.27887950  2.67380925  2.61529730
   0.06873900  7.88394975  2.61529730
   5.32470550  7.92977575  2.61529730
 


--------------------------------------------------------------------------------------------------------


 k-point  1 :   0.0000 0.0000 0.0000  plane waves:   48403
 k-point  2 :   0.5000 0.0000 0.0000  plane waves:   48428
 k-point  3 :   0.5000 0.5000 0.0000  plane waves:   48480
 k-point  4 :   0.0000 0.0000 0.5000  plane waves:   48380
 k-point  5 :   0.5000 0.0000 0.5000  plane waves:   48344
 k-point  6 :   0.5000 0.5000 0.5000  plane waves:   48328

 maximum and minimum number of plane-waves per node :     48480    48328

 maximum number of plane-waves:     48480
 maximum index in each direction: 
   IXMAX=   22   IYMAX=   22   IZMAX=   22
   IXMIN=  -23   IYMIN=  -23   IZMIN=  -22


 serial   3D FFT for wavefunctions
 parallel 3D FFT for charge:
    minimum data exchange during FFTs selected (reduces bandwidth)


 total amount of memory used by VASP MPI-rank0   301249. kBytes
=======================================================================

   base      :      30000. kBytes
   nonl-proj :     175882. kBytes
   fftplans  :       4588. kBytes
   grid      :      69719. kBytes
   one-center:       1990. kBytes
   wavefun   :      19070. kBytes
 
     INWAV:  cpu time    0.0000: real time    0.0000
 Broyden mixing: mesh for mixing (old mesh)
   NGX = 45   NGY = 45   NGZ = 45
  (NGX  =192   NGY  =192   NGZ  =180)
  gives a total of  91125 points

 initial charge density was supplied:
 number of electron     688.0000480 magnetization       0.0000000
 keeping initial charge density in first step


--------------------------------------------------------------------------------------------------------


 Maximum index for augmentation-charges          899 (set IRDMAX)


--------------------------------------------------------------------------------------------------------


 First call to EWALD:  gamma=   0.169
 Maximum number of real-space cells 3x 3x 3
 Maximum number of reciprocal cells 3x 3x 3

    FEWALD:  cpu time    0.0022: real time    0.0022


--------------------------------------- Iteration      1(   1)  ---------------------------------------


    POTLOK:  cpu time    0.3291: real time    0.3905
    SETDIJ:  cpu time    0.0144: real time    0.0145
     EDDAV:  cpu time   63.2579: real time   63.8114
 BZINTS: Fermi energy: 14.972446;688.000000 electrons
         Band energy:***********;  BLOECHL correction: -0.014344
       DOS:  cpu time    0.0203: real time    0.0204
    --------------------------------------------
      LOOP:  cpu time   63.6217: real time   64.2367

 eigenvalue-minimisations  : 12288
 total energy-change (2. order) : 0.6060192E+04  (-0.5158418E+05)
 number of electron     688.0000480 magnetization       0.0000000
 augmentation part      688.0000480 magnetization       0.0000000

 Free energy of the ion-electron system (eV)
  ---------------------------------------------------
  alpha Z        PSCENC =      2355.80034339
  Ewald energy   TEWEN  =    -62465.61195369
  -Hartree energ DENC   =    -42954.83496450
  -exchange      EXHF   =         0.00000000
  -V(xc)+E(xc)   XCENC  =      3286.51351081
  PAW double counting   =    112279.41137284  -115973.41562630
  entropy T*S    EENTRO =         0.00000000
  eigenvalues    EBANDS =     -4487.73530466
  atomic energy  EATOM  =    114020.06510763
  Solvation  Ediel_sol  =         0.00000000
  ---------------------------------------------------
  free energy    TOTEN  =      6060.19248553 eV

  energy without entropy =     6060.19248553  energy(sigma->0) =     6060.19248553


--------------------------------------------------------------------------------------------------------




--------------------------------------- Iteration      1(   2)  ---------------------------------------


     EDDAV:  cpu time   76.8629: real time   77.4421
 BZINTS: Fermi energy:  5.548316;688.000000 electrons
         Band energy:***********;  BLOECHL correction:  0.000000
       DOS:  cpu time    0.0036: real time    0.0036
    --------------------------------------------
      LOOP:  cpu time   76.8665: real time   77.4457

 eigenvalue-minimisations  : 13824
 total energy-change (2. order) :-0.6138280E+04  (-0.6028122E+04)
 number of electron     688.0000480 magnetization       0.0000000
 augmentation part      688.0000480 magnetization       0.0000000

 Free energy of the ion-electron system (eV)
  ---------------------------------------------------
  alpha Z        PSCENC =      2355.80034339
  Ewald energy   TEWEN  =    -62465.61195369
  -Hartree energ DENC   =    -42954.83496450
  -exchange      EXHF   =         0.00000000
  -V(xc)+E(xc)   XCENC  =      3286.51351081
  PAW double counting   =    112279.41137284  -115973.41562630
  entropy T*S    EENTRO =         0.00000000
  eigenvalues    EBANDS =    -10626.01534083
  atomic energy  EATOM  =    114020.06510763
  Solvation  Ediel_sol  =         0.00000000
  ---------------------------------------------------
  free energy    TOTEN  =       -78.08755063 eV

  energy without entropy =      -78.08755063  energy(sigma->0) =      -78.08755063


--------------------------------------------------------------------------------------------------------




--------------------------------------- Iteration      1(   3)  ---------------------------------------


     EDDAV:  cpu time  111.2847: real time  112.0609
 BZINTS: Fermi energy:  4.964031;688.000000 electrons
         Band energy:***********;  BLOECHL correction:  0.000000
       DOS:  cpu time    0.0036: real time    0.0036
    --------------------------------------------
      LOOP:  cpu time  111.2883: real time  112.0645

 eigenvalue-minimisations  : 16640
 total energy-change (2. order) :-0.2464738E+03  (-0.2456130E+03)
 number of electron     688.0000480 magnetization       0.0000000
 augmentation part      688.0000480 magnetization       0.0000000

 Free energy of the ion-electron system (eV)
  ---------------------------------------------------
  alpha Z        PSCENC =      2355.80034339
  Ewald energy   TEWEN  =    -62465.61195369
  -Hartree energ DENC   =    -42954.83496450
  -exchange      EXHF   =         0.00000000
  -V(xc)+E(xc)   XCENC  =      3286.51351081
  PAW double counting   =    112279.41137284  -115973.41562630
  entropy T*S    EENTRO =         0.00000000
  eigenvalues    EBANDS =    -10872.48911027
  atomic energy  EATOM  =    114020.06510763
  Solvation  Ediel_sol  =         0.00000000
  ---------------------------------------------------
  free energy    TOTEN  =      -324.56132008 eV

  energy without entropy =     -324.56132008  energy(sigma->0) =     -324.56132008


--------------------------------------------------------------------------------------------------------




--------------------------------------- Iteration      1(   4)  ---------------------------------------


     EDDAV:  cpu time   96.8542: real time   97.5437
 BZINTS: Fermi energy:  4.887432;688.000000 electrons
         Band energy:***********;  BLOECHL correction:  0.000000
       DOS:  cpu time    0.0028: real time    0.0028
    --------------------------------------------
      LOOP:  cpu time   96.8570: real time   97.5465

 eigenvalue-minimisations  : 15104
 total energy-change (2. order) :-0.3421232E+01  (-0.3421081E+01)
 number of electron     688.0000480 magnetization       0.0000000
 augmentation part      688.0000480 magnetization       0.0000000

 Free energy of the ion-electron system (eV)
  ---------------------------------------------------
  alpha Z        PSCENC =      2355.80034339
  Ewald energy   TEWEN  =    -62465.61195369
  -Hartree energ DENC   =    -42954.83496450
  -exchange      EXHF   =         0.00000000
  -V(xc)+E(xc)   XCENC  =      3286.51351081
  PAW double counting   =    112279.41137284  -115973.41562630
  entropy T*S    EENTRO =         0.00000000
  eigenvalues    EBANDS =    -10875.91034185
  atomic energy  EATOM  =    114020.06510763
  Solvation  Ediel_sol  =         0.00000000
  ---------------------------------------------------
  free energy    TOTEN  =      -327.98255165 eV

  energy without entropy =     -327.98255165  energy(sigma->0) =     -327.98255165


--------------------------------------------------------------------------------------------------------




--------------------------------------- Iteration      1(   5)  ---------------------------------------


     EDDAV:  cpu time  106.5933: real time  107.3320
 BZINTS: Fermi energy:  4.826472;688.000000 electrons
         Band energy:***********;  BLOECHL correction:  0.000000
       DOS:  cpu time    0.0027: real time    0.0027
    CHARGE:  cpu time    1.1785: real time    1.1865
    MIXING:  cpu time    0.0045: real time    0.0046
    --------------------------------------------
      LOOP:  cpu time  107.7791: real time  108.5258

 eigenvalue-minimisations  : 15872
 total energy-change (2. order) :-0.1039957E+00  (-0.1039953E+00)
 number of electron     688.0000480 magnetization       0.0000000
 augmentation part      282.2346448 magnetization       0.0000000

 Broyden mixing:
  rms(total) = 0.25361E-01    rms(broyden)= 0.25357E-01
  rms(prec ) = 0.25423E-01
  weight for this iteration     100.00

 Free energy of the ion-electron system (eV)
  ---------------------------------------------------
  alpha Z        PSCENC =      2355.80034339
  Ewald energy   TEWEN  =    -62465.61195369
  -Hartree energ DENC   =    -42954.83496450
  -exchange      EXHF   =         0.00000000
  -V(xc)+E(xc)   XCENC  =      3286.51351081
  PAW double counting   =    112279.41137284  -115973.41562630
  entropy T*S    EENTRO =         0.00000000
  eigenvalues    EBANDS =    -10876.01433756
  atomic energy  EATOM  =    114020.06510763
  Solvation  Ediel_sol  =         0.00000000
  ---------------------------------------------------
  free energy    TOTEN  =      -328.08654737 eV

  energy without entropy =     -328.08654737  energy(sigma->0) =     -328.08654737


--------------------------------------------------------------------------------------------------------




--------------------------------------- Iteration      1(   6)  ---------------------------------------


    POTLOK:  cpu time    0.1246: real time    0.1279
    SETDIJ:  cpu time    0.0126: real time    0.0127
     EDDAV:  cpu time  117.0584: real time  117.8482
 BZINTS: Fermi energy:  5.008117;688.000000 electrons
         Band energy:***********;  BLOECHL correction:  0.000000
       DOS:  cpu time    0.0031: real time    0.0031
    CHARGE:  cpu time    1.1744: real time    1.1821
    MIXING:  cpu time    0.0025: real time    0.0236
    --------------------------------------------
      LOOP:  cpu time  118.3757: real time  119.1975

 eigenvalue-minimisations  : 16640
 total energy-change (2. order) :-0.5134305E-02  (-0.5153056E-02)
 number of electron     688.0000480 magnetization       0.0000000
 augmentation part      282.2081494 magnetization       0.0000000

 Broyden mixing:
  rms(total) = 0.96306E-02    rms(broyden)= 0.96278E-02
  rms(prec ) = 0.99832E-02
  weight for this iteration     100.00

 eigenvalues of (default mixing * dielectric matrix)
  average eigenvalue GAMMA=   0.7207
  0.7207

 Free energy of the ion-electron system (eV)
  ---------------------------------------------------
  alpha Z        PSCENC =      2355.80034339
  Ewald energy   TEWEN  =    -62465.61195369
  -Hartree energ DENC   =    -42955.38145001
  -exchange      EXHF   =         0.00000000
  -V(xc)+E(xc)   XCENC  =      3286.53692696
  PAW double counting   =    112300.10410325  -115994.30020034
  entropy T*S    EENTRO =         0.00000000
  eigenvalues    EBANDS =    -10875.30455888
  atomic energy  EATOM  =    114020.06510763
  Solvation  Ediel_sol  =         0.00000000
  ---------------------------------------------------
  free energy    TOTEN  =      -328.09168167 eV

  energy without entropy =     -328.09168167  energy(sigma->0) =     -328.09168167


--------------------------------------------------------------------------------------------------------




--------------------------------------- Iteration      1(   7)  ---------------------------------------


    POTLOK:  cpu time    0.1268: real time    0.1276
    SETDIJ:  cpu time    0.0128: real time    0.0129
     EDDAV:  cpu time  103.0091: real time  103.7252
 BZINTS: Fermi energy:  4.993889;688.000000 electrons
         Band energy:***********;  BLOECHL correction:  0.000000
       DOS:  cpu time    0.0032: real time    0.0032
    CHARGE:  cpu time    1.1740: real time    1.1818
    MIXING:  cpu time    0.0017: real time    0.0412
    --------------------------------------------
      LOOP:  cpu time  104.3276: real time  105.0919

 eigenvalue-minimisations  : 15360
 total energy-change (2. order) :-0.2994774E-03  (-0.3371636E-03)
 number of electron     688.0000480 magnetization       0.0000000
 augmentation part      282.2222792 magnetization       0.0000000

 Broyden mixing:
  rms(total) = 0.85826E-02    rms(broyden)= 0.85816E-02
  rms(prec ) = 0.88494E-02
  weight for this iteration     100.00

 eigenvalues of (default mixing * dielectric matrix)
  average eigenvalue GAMMA=   0.5489
  0.5489  0.5489

 Free energy of the ion-electron system (eV)
  ---------------------------------------------------
  alpha Z        PSCENC =      2355.80034339
  Ewald energy   TEWEN  =    -62465.61195369
  -Hartree energ DENC   =    -42954.47882736
  -exchange      EXHF   =         0.00000000
  -V(xc)+E(xc)   XCENC  =      3286.50875147
  PAW double counting   =    112292.83566533  -115986.86460947
  entropy T*S    EENTRO =         0.00000000
  eigenvalues    EBANDS =    -10876.34645845
  atomic energy  EATOM  =    114020.06510763
  Solvation  Ediel_sol  =         0.00000000
  ---------------------------------------------------
  free energy    TOTEN  =      -328.09198115 eV

  energy without entropy =     -328.09198115  energy(sigma->0) =     -328.09198115


--------------------------------------------------------------------------------------------------------




--------------------------------------- Iteration      1(   8)  ---------------------------------------


    POTLOK:  cpu time    0.1263: real time    0.1283
    SETDIJ:  cpu time    0.0127: real time    0.0128
     EDDAV:  cpu time  110.9179: real time  111.6802
 BZINTS: Fermi energy:  4.986386;688.000000 electrons
         Band energy:***********;  BLOECHL correction:  0.000000
       DOS:  cpu time    0.0031: real time    0.0032
    CHARGE:  cpu time    1.2640: real time    1.2722
    MIXING:  cpu time    0.0016: real time    0.0036
    --------------------------------------------
      LOOP:  cpu time  112.3256: real time  113.1003

 eigenvalue-minimisations  : 16384
 total energy-change (2. order) :-0.1735475E-04  (-0.3332872E-04)
 number of electron     688.0000480 magnetization       0.0000000
 augmentation part      282.2195931 magnetization       0.0000000

 Broyden mixing:
  rms(total) = 0.75566E-02    rms(broyden)= 0.75563E-02
  rms(prec ) = 0.76292E-02
  weight for this iteration     100.00

 eigenvalues of (default mixing * dielectric matrix)
  average eigenvalue GAMMA=   0.4216
  0.5031  0.5031  0.2586

 Free energy of the ion-electron system (eV)
  ---------------------------------------------------
  alpha Z        PSCENC =      2355.80034339
  Ewald energy   TEWEN  =    -62465.61195369
  -Hartree energ DENC   =    -42954.78900066
  -exchange      EXHF   =         0.00000000
  -V(xc)+E(xc)   XCENC  =      3286.51911532
  PAW double counting   =    112291.34944215  -115985.41261693
  entropy T*S    EENTRO =         0.00000000
  eigenvalues    EBANDS =    -10876.01243572
  atomic energy  EATOM  =    114020.06510763
  Solvation  Ediel_sol  =         0.00000000
  ---------------------------------------------------
  free energy    TOTEN  =      -328.09199851 eV

  energy without entropy =     -328.09199851  energy(sigma->0) =     -328.09199851


--------------------------------------------------------------------------------------------------------




--------------------------------------- Iteration      1(   9)  ---------------------------------------


    POTLOK:  cpu time    0.1542: real time    0.1551
    SETDIJ:  cpu time    0.0127: real time    0.0128
     EDDAV:  cpu time  111.1753: real time  111.9373
 BZINTS: Fermi energy:  4.983826;688.000000 electrons
         Band energy:***********;  BLOECHL correction:  0.000000
       DOS:  cpu time    0.0031: real time    0.0032
    CHARGE:  cpu time    1.1753: real time    1.1830
    MIXING:  cpu time    0.0013: real time    0.0013
    --------------------------------------------
      LOOP:  cpu time  112.5219: real time  113.2926

 eigenvalue-minimisations  : 16128
 total energy-change (2. order) : 0.2772140E-06  (-0.1692320E-05)
 number of electron     688.0000480 magnetization       0.0000000
 augmentation part      282.2187479 magnetization       0.0000000

 Broyden mixing:
  rms(total) = 0.68185E-02    rms(broyden)= 0.68184E-02
  rms(prec ) = 0.68335E-02
  weight for this iteration     100.00

 eigenvalues of (default mixing * dielectric matrix)
  average eigenvalue GAMMA=   0.4887
  0.6312  0.6312  0.3463  0.3463

 Free energy of the ion-electron system (eV)
  ---------------------------------------------------
  alpha Z        PSCENC =      2355.80034339
  Ewald energy   TEWEN  =    -62465.61195369
  -Hartree energ DENC   =    -42954.81117506
  -exchange      EXHF   =         0.00000000
  -V(xc)+E(xc)   XCENC  =      3286.51806077
  PAW double counting   =    112290.52099433  -115984.58550406
  entropy T*S    EENTRO =         0.00000000
  eigenvalues    EBANDS =    -10875.98787155
  atomic energy  EATOM  =    114020.06510763
  Solvation  Ediel_sol  =         0.00000000
  ---------------------------------------------------
  free energy    TOTEN  =      -328.09199823 eV

  energy without entropy =     -328.09199823  energy(sigma->0) =     -328.09199823


--------------------------------------------------------------------------------------------------------




--------------------------------------- Iteration      1(  10)  ---------------------------------------


    POTLOK:  cpu time    0.1265: real time    0.1275
    SETDIJ:  cpu time    0.0129: real time    0.0129
     EDDAV:  cpu time  113.2466: real time  114.0233
 BZINTS: Fermi energy:  4.981704;688.000000 electrons
         Band energy:***********;  BLOECHL correction:  0.000000
       DOS:  cpu time    0.0031: real time    0.0031
    CHARGE:  cpu time    1.1741: real time    1.1820
    MIXING:  cpu time    0.0015: real time    0.0015
    --------------------------------------------
      LOOP:  cpu time  114.5647: real time  115.3503

 eigenvalue-minimisations  : 16384
 total energy-change (2. order) : 0.2440356E-06  (-0.8235133E-07)
 number of electron     688.0000480 magnetization       0.0000000
 augmentation part      282.2184342 magnetization       0.0000000

 Broyden mixing:
  rms(total) = 0.58837E-02    rms(broyden)= 0.58837E-02
  rms(prec ) = 0.58983E-02
  weight for this iteration     100.00

 eigenvalues of (default mixing * dielectric matrix)
  average eigenvalue GAMMA=   0.7410
  1.1995  1.1995  0.4817  0.4817  0.3424

 Free energy of the ion-electron system (eV)
  ---------------------------------------------------
  alpha Z        PSCENC =      2355.80034339
  Ewald energy   TEWEN  =    -62465.61195369
  -Hartree energ DENC   =    -42954.84477045
  -exchange      EXHF   =         0.00000000
  -V(xc)+E(xc)   XCENC  =      3286.51808370
  PAW double counting   =    112288.95956706  -115983.01799374
  entropy T*S    EENTRO =         0.00000000
  eigenvalues    EBANDS =    -10875.96038189
  atomic energy  EATOM  =    114020.06510763
  Solvation  Ediel_sol  =         0.00000000
  ---------------------------------------------------
  free energy    TOTEN  =      -328.09199799 eV

  energy without entropy =     -328.09199799  energy(sigma->0) =     -328.09199799


--------------------------------------------------------------------------------------------------------




--------------------------------------- Iteration      1(  11)  ---------------------------------------


    POTLOK:  cpu time    0.1263: real time    0.1278
    SETDIJ:  cpu time    0.0131: real time    0.0131
     EDDAV:  cpu time   99.7950: real time  100.4861
 BZINTS: Fermi energy:  4.980743;688.000000 electrons
         Band energy:***********;  BLOECHL correction:  0.000000
       DOS:  cpu time    0.0031: real time    0.0032
    CHARGE:  cpu time    1.1753: real time    1.1833
    MIXING:  cpu time    0.0016: real time    0.0016
    --------------------------------------------
      LOOP:  cpu time  101.1145: real time  101.8152

 eigenvalue-minimisations  : 14848
 total energy-change (2. order) : 0.9382202E-06  (-0.8616195E-07)
 number of electron     688.0000480 magnetization       0.0000000
 augmentation part      282.2191119 magnetization       0.0000000

 Broyden mixing:
  rms(total) = 0.30129E-02    rms(broyden)= 0.30129E-02
  rms(prec ) = 0.30221E-02
  weight for this iteration     100.00

 eigenvalues of (default mixing * dielectric matrix)
  average eigenvalue GAMMA=   0.8952
  1.5903  1.5903  0.6641  0.6641  0.5251  0.3372

 Free energy of the ion-electron system (eV)
  ---------------------------------------------------
  alpha Z        PSCENC =      2355.80034339
  Ewald energy   TEWEN  =    -62465.61195369
  -Hartree energ DENC   =    -42954.86286151
  -exchange      EXHF   =         0.00000000
  -V(xc)+E(xc)   XCENC  =      3286.51679045
  PAW double counting   =    112284.20724474  -115978.23508232
  entropy T*S    EENTRO =         0.00000000
  eigenvalues    EBANDS =    -10875.97158575
  atomic energy  EATOM  =    114020.06510763
  Solvation  Ediel_sol  =         0.00000000
  ---------------------------------------------------
  free energy    TOTEN  =      -328.09199705 eV

  energy without entropy =     -328.09199705  energy(sigma->0) =     -328.09199705


--------------------------------------------------------------------------------------------------------




--------------------------------------- Iteration      1(  12)  ---------------------------------------


    POTLOK:  cpu time    0.1282: real time    0.1292
    SETDIJ:  cpu time    0.0126: real time    0.0127
     EDDAV:  cpu time  128.4751: real time  129.3360
 BZINTS: Fermi energy:  4.980178;688.000000 electrons
         Band energy:***********;  BLOECHL correction:  0.000000
       DOS:  cpu time    0.0031: real time    0.0031
    CHARGE:  cpu time    1.2164: real time    1.2249
    MIXING:  cpu time    0.0015: real time    0.0015
    --------------------------------------------
      LOOP:  cpu time  129.8370: real time  130.7074

 eigenvalue-minimisations  : 17664
 total energy-change (2. order) : 0.6691844E-06  (-0.1002044E-06)
 number of electron     688.0000480 magnetization       0.0000000
 augmentation part      282.2200780 magnetization       0.0000000

 Broyden mixing:
  rms(total) = 0.28663E-03    rms(broyden)= 0.28662E-03
  rms(prec ) = 0.29875E-03
  weight for this iteration     100.00

 eigenvalues of (default mixing * dielectric matrix)
  average eigenvalue GAMMA=   0.8863
  1.7180  1.4223  0.7555  0.7555  0.6823  0.5310  0.3397

 Free energy of the ion-electron system (eV)
  ---------------------------------------------------
  alpha Z        PSCENC =      2355.80034339
  Ewald energy   TEWEN  =    -62465.61195369
  -Hartree energ DENC   =    -42954.86931360
  -exchange      EXHF   =         0.00000000
  -V(xc)+E(xc)   XCENC  =      3286.51567178
  PAW double counting   =    112279.45046382  -115973.44920902
  entropy T*S    EENTRO =         0.00000000
  eigenvalues    EBANDS =    -10875.99310668
  atomic energy  EATOM  =    114020.06510763
  Solvation  Ediel_sol  =         0.00000000
  ---------------------------------------------------
  free energy    TOTEN  =      -328.09199638 eV

  energy without entropy =     -328.09199638  energy(sigma->0) =     -328.09199638


--------------------------------------------------------------------------------------------------------




--------------------------------------- Iteration      1(  13)  ---------------------------------------


    POTLOK:  cpu time    0.1276: real time    0.1283
    SETDIJ:  cpu time    0.0127: real time    0.0128
     EDDAV:  cpu time   91.0547: real time   91.6989
 BZINTS: Fermi energy:  4.979948;688.000000 electrons
         Band energy:***********;  BLOECHL correction:  0.000000
       DOS:  cpu time    0.0031: real time    0.0031
    CHARGE:  cpu time    1.3375: real time    1.3460
    MIXING:  cpu time    0.0018: real time    0.0018
    --------------------------------------------
      LOOP:  cpu time   92.5375: real time   93.1909

 eigenvalue-minimisations  : 14336
 total energy-change (2. order) : 0.5147012E-07  (-0.8221587E-08)
 number of electron     688.0000480 magnetization      -0.0000000
 augmentation part      282.2201853 magnetization      -0.0000000

 Broyden mixing:
  rms(total) = 0.12858E-03    rms(broyden)= 0.12858E-03
  rms(prec ) = 0.13472E-03
  weight for this iteration     100.00

 eigenvalues of (default mixing * dielectric matrix)
  average eigenvalue GAMMA=   1.0184
  2.4233  1.3949  1.3949  0.7483  0.7483  0.3392  0.5493  0.5493

 Free energy of the ion-electron system (eV)
  ---------------------------------------------------
  alpha Z        PSCENC =      2355.80034339
  Ewald energy   TEWEN  =    -62465.61195369
  -Hartree energ DENC   =    -42954.86996757
  -exchange      EXHF   =         0.00000000
  -V(xc)+E(xc)   XCENC  =      3286.51556381
  PAW double counting   =    112278.85223288  -115972.84824498
  entropy T*S    EENTRO =         0.00000000
  eigenvalues    EBANDS =    -10875.99507780
  atomic energy  EATOM  =    114020.06510763
  Solvation  Ediel_sol  =         0.00000000
  ---------------------------------------------------
  free energy    TOTEN  =      -328.09199633 eV

  energy without entropy =     -328.09199633  energy(sigma->0) =     -328.09199633


--------------------------------------------------------------------------------------------------------




--------------------------------------- Iteration      1(  14)  ---------------------------------------


    POTLOK:  cpu time    0.1352: real time    0.1360
    SETDIJ:  cpu time    0.0142: real time    0.0143
     EDDAV:  cpu time   95.3703: real time   96.0135
 BZINTS: Fermi energy:  4.979678;688.000000 electrons
         Band energy:***********;  BLOECHL correction:  0.000000
       DOS:  cpu time    0.0031: real time    0.0031
    --------------------------------------------
      LOOP:  cpu time   95.5228: real time   96.1670

 eigenvalue-minimisations  : 12800
 total energy-change (2. order) : 0.3463356E-08  (-0.4604546E-08)
 number of electron     688.0000480 magnetization      -0.0000000
 augmentation part      282.2201853 magnetization      -0.0000000

 Free energy of the ion-electron system (eV)
  ---------------------------------------------------
  alpha Z        PSCENC =      2355.80034339
  Ewald energy   TEWEN  =    -62465.61195369
  -Hartree energ DENC   =    -42954.86638358
  -exchange      EXHF   =         0.00000000
  -V(xc)+E(xc)   XCENC  =      3286.51553212
  PAW double counting   =    112278.83231036  -115972.82934787
  entropy T*S    EENTRO =         0.00000000
  eigenvalues    EBANDS =    -10875.99760470
  atomic energy  EATOM  =    114020.06510763
  Solvation  Ediel_sol  =         0.00000000
  ---------------------------------------------------
  free energy    TOTEN  =      -328.09199632 eV

  energy without entropy =     -328.09199632  energy(sigma->0) =     -328.09199632


--------------------------------------------------------------------------------------------------------




 average (electrostatic) potential at core
  the test charge radii are     0.9698  0.8297  0.9500
  (the norm of the test charge is              1.0000)
       1 -86.6231       2 -86.6231       3 -86.6231       4 -86.6231       5 -86.6231
       6 -86.6231       7 -86.6231       8 -86.6231       9 -86.6231      10 -86.6231
      11 -86.6231      12 -86.6231      13 -86.6231      14 -86.6231      15 -86.6231
      16 -86.6231      17 -86.6231      18 -86.6231      19 -86.6231      20 -86.6231
      21 -86.6231      22 -86.6231      23 -86.6231      24 -86.6231      25 -86.6231
      26 -86.6231      27 -86.6231      28 -86.6231      29 -86.6231      30 -86.6231
      31 -86.6231      32 -86.6231      33 -80.7022      34 -80.7022      35 -80.7022
      36 -80.7022      37 -80.7022      38 -80.7022      39 -80.7022      40 -80.7022
      41 -80.7022      42 -80.7022      43 -80.7022      44 -80.7022      45 -80.7022
      46 -80.7022      47 -80.7022      48 -80.7022      49 -80.2289      50 -80.2289
      51 -80.2289      52 -80.2289      53 -80.2289      54 -80.2289      55 -80.2289
      56 -80.2289      57 -80.2289      58 -80.2289      59 -80.2289      60 -80.2289
      61 -80.2289      62 -80.2289      63 -80.2289      64 -80.2289
 
 
 
 E-fermi :   4.9797     XC(G=0): -10.4657     alpha+bet :-10.5448


 spin component 1

 k-point     1 :       0.0000    0.0000    0.0000
  band No.  band energies     occupation 
      1     -64.3129      1.00000
      2     -64.3129      1.00000
      3     -64.3129      1.00000
      4     -64.3129      1.00000
      5     -64.3129      1.00000
      6     -64.3129      1.00000
      7     -64.3128      1.00000
      8     -64.3128      1.00000
      9     -64.2817      1.00000
     10     -64.2817      1.00000
     11     -64.2817      1.00000
     12     -64.2817      1.00000
     13     -64.2817      1.00000
     14     -64.2817      1.00000
     15     -64.2816      1.00000
     16     -64.2816      1.00000
     17     -64.2788      1.00000
     18     -64.2788      1.00000
     19     -64.2788      1.00000
     20     -64.2788      1.00000
     21     -64.2788      1.00000
     22     -64.2788      1.00000
     23     -64.2788      1.00000
     24     -64.2788      1.00000
     25     -64.2786      1.00000
     26     -64.2786      1.00000
     27     -64.2785      1.00000
     28     -64.2785      1.00000
     29     -64.2785      1.00000
     30     -64.2785      1.00000
     31     -64.2785      1.00000
     32     -64.2785      1.00000
     33     -64.2659      1.00000
     34     -64.2659      1.00000
     35     -64.2659      1.00000
     36     -64.2659      1.00000
     37     -64.2659      1.00000
     38     -64.2659      1.00000
     39     -64.2659      1.00000
     40     -64.2659      1.00000
     41     -64.2587      1.00000
     42     -64.2587      1.00000
     43     -64.2587      1.00000
     44     -64.2587      1.00000
     45     -64.2587      1.00000
     46     -64.2586      1.00000
     47     -64.2586      1.00000
     48     -64.2586      1.00000
     49     -51.8806      1.00000
     50     -51.8806      1.00000
     51     -51.8806      1.00000
     52     -51.8806      1.00000
     53     -51.8806      1.00000
     54     -51.8806      1.00000
     55     -51.8806      1.00000
     56     -51.8806      1.00000
     57     -51.8552      1.00000
     58     -51.8552      1.00000
     59     -51.8552      1.00000
     60     -51.8552      1.00000
     61     -51.8552      1.00000
     62     -51.8552      1.00000
     63     -51.8552      1.00000
     64     -51.8552      1.00000
     65     -51.8466      1.00000
     66     -51.8466      1.00000
     67     -51.8466      1.00000
     68     -51.8466      1.00000
     69     -51.8466      1.00000
     70     -51.8466      1.00000
     71     -51.8466      1.00000
     72     -51.8466      1.00000
     73     -47.7301      1.00000
     74     -47.7301      1.00000
     75     -47.7301      1.00000
     76     -47.7301      1.00000
     77     -47.7301      1.00000
     78     -47.7301      1.00000
     79     -47.7301      1.00000
     80     -47.7301      1.00000
     81     -47.7284      1.00000
     82     -47.7284      1.00000
     83     -47.7284      1.00000
     84     -47.7284      1.00000
     85     -47.7284      1.00000
     86     -47.7284      1.00000
     87     -47.7284      1.00000
     88     -47.7283      1.00000
     89     -47.7260      1.00000
     90     -47.7260      1.00000
     91     -47.7260      1.00000
     92     -47.7260      1.00000
     93     -47.7260      1.00000
     94     -47.7260      1.00000
     95     -47.7260      1.00000
     96     -47.7260      1.00000
     97      -9.1116      1.00000
     98      -8.5017      1.00000
     99      -8.4996      1.00000
    100      -8.4996      1.00000
    101      -8.4995      1.00000
    102      -8.4995      1.00000
    103      -8.4782      1.00000
    104      -8.1506      1.00000
    105      -8.1495      1.00000
    106      -8.1379      1.00000
    107      -8.1379      1.00000
    108      -8.1379      1.00000
    109      -8.1379      1.00000
    110      -8.1274      1.00000
    111      -8.1230      1.00000
    112      -8.1176      1.00000
    113      -8.1170      1.00000
    114      -8.1170      1.00000
    115      -8.1169      1.00000
    116      -8.1169      1.00000
    117      -8.0933      1.00000
    118      -8.0843      1.00000
    119      -8.0632      1.00000
    120      -7.7727      1.00000
    121      -7.7667      1.00000
    122      -7.7649      1.00000
    123      -7.7585      1.00000
    124      -7.7554      1.00000
    125      -7.7554      1.00000
    126      -7.7552      1.00000
    127      -7.7552      1.00000
    128      -7.7524      1.00000
    129      -2.0695      1.00000
    130      -2.0515      1.00000
    131      -2.0515      1.00000
    132      -2.0488      1.00000
    133      -2.0488      1.00000
    134      -2.0240      1.00000
    135      -1.9798      1.00000
    136      -1.9652      1.00000
    137      -1.9487      1.00000
    138      -1.9032      1.00000
    139      -1.8917      1.00000
    140      -1.8851      1.00000
    141      -1.8851      1.00000
    142      -1.8832      1.00000
    143      -1.8832      1.00000
    144      -1.8720      1.00000
    145      -1.8666      1.00000
    146      -1.8437      1.00000
    147      -1.8437      1.00000
    148      -1.8422      1.00000
    149      -1.8422      1.00000
    150      -1.8209      1.00000
    151      -1.7973      1.00000
    152      -1.7973      1.00000
    153      -1.7970      1.00000
    154      -1.7926      1.00000
    155      -1.7926      1.00000
    156      -1.7916      1.00000
    157      -1.7908      1.00000
    158      -1.7759      1.00000
    159      -1.7644      1.00000
    160      -1.7538      1.00000
    161      -1.7538      1.00000
    162      -1.7521      1.00000
    163      -1.7521      1.00000
    164      -1.7474      1.00000
    165      -1.7457      1.00000
    166      -1.7424      1.00000
    167      -1.7074      1.00000
    168      -1.7067      1.00000
    169      -0.9781      1.00000
    170      -0.9376      1.00000
    171      -0.8724      1.00000
    172      -0.8396      1.00000
    173      -0.7461      1.00000
    174      -0.4978      1.00000
    175      -0.2387      1.00000
    176      -0.2387      1.00000
    177      -0.2372      1.00000
    178      -0.2372      1.00000
    179      -0.1930      1.00000
    180      -0.1920      1.00000
    181      -0.1245      1.00000
    182      -0.0330      1.00000
    183      -0.0330      1.00000
    184      -0.0299      1.00000
    185      -0.0299      1.00000
    186       0.0382      1.00000
    187       0.0398      1.00000
    188       0.0990      1.00000
    189       0.0990      1.00000
    190       0.0996      1.00000
    191       0.0996      1.00000
    192       0.1086      1.00000
    193       0.2009      1.00000
    194       0.2620      1.00000
    195       0.2620      1.00000
    196       0.2648      1.00000
    197       0.2648      1.00000
    198       0.2930      1.00000
    199       0.3198      1.00000
    200       0.6751      1.00000
    201       0.7196      1.00000
    202       0.7282      1.00000
    203       0.7585      1.00000
    204       0.7981      1.00000
    205       0.7981      1.00000
    206       0.8015      1.00000
    207       0.8015      1.00000
    208       0.8660      1.00000
    209       0.8660      1.00000
    210       0.8707      1.00000
    211       0.8707      1.00000
    212       1.0046      1.00000
    213       1.0046      1.00000
    214       1.0051      1.00000
    215       1.0051      1.00000
    216       1.0980      1.00000
    217       1.1318      1.00000
    218       1.1398      1.00000
    219       1.1458      1.00000
    220       1.1572      1.00000
    221       1.1730      1.00000
    222       1.1773      1.00000
    223       1.1773      1.00000
    224       1.1780      1.00000
    225       1.1780      1.00000
    226       1.1791      1.00000
    227       1.1909      1.00000
    228       1.2485      1.00000
    229       1.2505      1.00000
    230       1.2792      1.00000
    231       1.2792      1.00000
    232       1.2823      1.00000
    233       1.2823      1.00000
    234       1.3017      1.00000
    235       1.3178      1.00000
    236       1.3212      1.00000
    237       1.3864      1.00000
    238       1.4339      1.00000
    239       1.5526      1.00000
    240       1.5539      1.00000
    241       1.6076      1.00000
    242       1.7847      1.00000
    243       1.7847      1.00000
    244       1.7869      1.00000
    245       1.7869      1.00000
    246       1.8078      1.00000
    247       1.8943      1.00000
    248       1.9053      1.00000
    249       1.9277      1.00000
[...]
   -.421E+02 0.139E+00 0.541E+01   0.430E+02 -.133E+00 -.546E+01   -.864E+00 -.551E-02 0.517E-01   -.796E-04 -.239E-05 0.187E-05
   -.421E+02 0.139E+00 0.541E+01   0.430E+02 -.133E+00 -.546E+01   -.864E+00 -.551E-02 0.517E-01   -.796E-04 -.239E-05 0.187E-05
   -.421E+02 0.139E+00 0.541E+01   0.430E+02 -.133E+00 -.546E+01   -.864E+00 -.551E-02 0.517E-01   -.796E-04 -.239E-05 0.187E-05
   -.421E+02 0.139E+00 0.541E+01   0.430E+02 -.133E+00 -.546E+01   -.864E+00 -.551E-02 0.517E-01   -.796E-04 -.239E-05 0.187E-05
   0.421E+02 -.139E+00 0.541E+01   -.430E+02 0.133E+00 -.546E+01   0.864E+00 0.551E-02 0.517E-01   0.796E-04 0.239E-05 0.187E-05
   0.421E+02 -.139E+00 0.541E+01   -.430E+02 0.133E+00 -.546E+01   0.864E+00 0.551E-02 0.517E-01   0.796E-04 0.239E-05 0.187E-05
   0.421E+02 -.139E+00 0.541E+01   -.430E+02 0.133E+00 -.546E+01   0.864E+00 0.551E-02 0.517E-01   0.796E-04 0.239E-05 0.187E-05
   0.421E+02 -.139E+00 0.541E+01   -.430E+02 0.133E+00 -.546E+01   0.864E+00 0.551E-02 0.517E-01   0.796E-04 0.239E-05 0.187E-05
   0.139E+00 -.421E+02 0.541E+01   -.133E+00 0.430E+02 -.546E+01   -.551E-02 -.864E+00 0.517E-01   -.239E-05 -.796E-04 0.187E-05
   0.139E+00 -.421E+02 0.541E+01   -.133E+00 0.430E+02 -.546E+01   -.551E-02 -.864E+00 0.517E-01   -.239E-05 -.796E-04 0.187E-05
   0.139E+00 -.421E+02 0.541E+01   -.133E+00 0.430E+02 -.546E+01   -.551E-02 -.864E+00 0.517E-01   -.239E-05 -.796E-04 0.187E-05
   0.139E+00 -.421E+02 0.541E+01   -.133E+00 0.430E+02 -.546E+01   -.551E-02 -.864E+00 0.517E-01   -.239E-05 -.796E-04 0.187E-05
   -.139E+00 0.421E+02 0.541E+01   0.133E+00 -.430E+02 -.546E+01   0.551E-02 0.864E+00 0.517E-01   0.239E-05 0.796E-04 0.187E-05
   -.139E+00 0.421E+02 0.541E+01   0.133E+00 -.430E+02 -.546E+01   0.551E-02 0.864E+00 0.517E-01   0.239E-05 0.796E-04 0.187E-05
   -.139E+00 0.421E+02 0.541E+01   0.133E+00 -.430E+02 -.546E+01   0.551E-02 0.864E+00 0.517E-01   0.239E-05 0.796E-04 0.187E-05
   -.139E+00 0.421E+02 0.541E+01   0.133E+00 -.430E+02 -.546E+01   0.551E-02 0.864E+00 0.517E-01   0.239E-05 0.796E-04 0.187E-05
   -.155E-06 0.177E-07 -.634E+01   -.167E-12 0.199E-12 0.609E+01   0.748E-24 0.370E-24 0.258E+00   -.824E-11 0.558E-11 -.961E-05
   -.155E-06 0.177E-07 -.634E+01   -.163E-12 0.199E-12 0.609E+01   -.338E-24 0.000E+00 0.258E+00   0.789E-11 0.920E-12 -.961E-05
   -.155E-06 0.177E-07 -.634E+01   -.139E-12 0.114E-12 0.609E+01   0.128E-24 -.310E-24 0.258E+00   -.388E-11 -.350E-11 -.961E-05
   -.155E-06 0.177E-07 -.634E+01   -.163E-12 0.171E-12 0.609E+01   0.143E-24 0.362E-24 0.258E+00   0.472E-11 -.254E-11 -.961E-05
   0.177E-07 -.155E-06 -.634E+01   -.853E-13 -.114E-12 0.609E+01   -.216E-24 -.530E-24 0.258E+00   -.454E-12 0.129E-11 -.961E-05
   0.177E-07 -.155E-06 -.634E+01   -.114E-12 -.114E-12 0.609E+01   0.121E-24 0.336E-24 0.258E+00   0.341E-11 0.667E-11 -.961E-05
   0.177E-07 -.155E-06 -.634E+01   -.853E-13 -.853E-13 0.609E+01   0.186E-24 -.517E-25 0.258E+00   0.184E-13 -.189E-11 -.961E-05
   0.177E-07 -.155E-06 -.634E+01   -.114E-12 -.853E-13 0.609E+01   -.170E-24 0.000E+00 0.258E+00   0.238E-11 -.802E-11 -.961E-05
   -.155E-06 0.177E-07 -.634E+01   -.149E-12 0.110E-12 0.609E+01   -.140E-24 -.517E-25 0.258E+00   -.236E-11 -.373E-11 -.961E-05
   -.155E-06 0.178E-07 -.634E+01   -.121E-12 0.110E-12 0.609E+01   0.203E-24 0.000E+00 0.258E+00   0.239E-11 -.209E-11 -.961E-05
   -.155E-06 0.177E-07 -.634E+01   -.142E-12 0.879E-13 0.609E+01   -.351E-24 0.155E-24 0.258E+00   -.816E-12 0.274E-11 -.961E-05
   -.155E-06 0.177E-07 -.634E+01   -.142E-12 0.879E-13 0.609E+01   -.876E-25 0.291E-25 0.258E+00   0.103E-11 0.159E-11 -.961E-05
   0.177E-07 -.155E-06 -.634E+01   -.647E-13 -.196E-12 0.609E+01   -.245E-24 0.258E-24 0.258E+00   0.630E-11 -.729E-11 -.961E-05
   0.177E-07 -.155E-06 -.634E+01   -.337E-13 -.196E-12 0.609E+01   -.638E-25 -.155E-24 0.258E+00   -.357E-11 -.533E-11 -.961E-05
   0.177E-07 -.155E-06 -.634E+01   -.861E-13 -.161E-12 0.609E+01   0.827E-25 -.478E-24 0.258E+00   0.655E-11 0.682E-11 -.961E-05
   0.177E-07 -.155E-06 -.634E+01   -.550E-13 -.161E-12 0.609E+01   0.354E-24 0.414E-24 0.258E+00   -.487E-11 0.401E-11 -.961E-05
   0.110E-07 -.476E-07 -.514E+01   -.106E-12 -.320E-13 0.484E+01   -.154E-24 -.103E-24 0.308E+00   0.853E-11 0.166E-11 -.269E-04
   0.110E-07 -.476E-07 -.514E+01   -.118E-12 -.284E-13 0.484E+01   0.343E-24 0.207E-24 0.308E+00   -.901E-11 0.199E-11 -.269E-04
   0.110E-07 -.476E-07 -.514E+01   -.117E-12 0.000E+00 0.484E+01   0.236E-24 -.517E-25 0.308E+00   0.746E-11 -.260E-11 -.269E-04
   0.110E-07 -.477E-07 -.514E+01   -.864E-13 0.284E-13 0.484E+01   0.170E-24 -.168E-24 0.308E+00   -.751E-11 -.152E-12 -.269E-04
   -.476E-07 0.110E-07 -.514E+01   0.224E-12 -.110E-12 0.484E+01   -.486E-25 0.129E-24 0.308E+00   -.217E-11 0.554E-12 -.269E-04
   -.476E-07 0.110E-07 -.514E+01   0.270E-12 -.103E-12 0.484E+01   0.631E-25 -.168E-24 0.308E+00   0.908E-12 0.357E-12 -.269E-04
   -.476E-07 0.110E-07 -.514E+01   0.249E-12 -.711E-13 0.484E+01   -.238E-24 -.103E-24 0.308E+00   -.621E-12 -.285E-13 -.269E-04
   -.476E-07 0.111E-07 -.514E+01   0.266E-12 -.782E-13 0.484E+01   -.436E-25 0.103E-24 0.308E+00   -.187E-11 0.105E-13 -.269E-04
   0.110E-07 -.476E-07 -.514E+01   -.174E-12 -.553E-13 0.484E+01   0.780E-25 -.103E-24 0.308E+00   -.659E-12 -.344E-11 -.269E-04
   0.110E-07 -.476E-07 -.514E+01   -.131E-12 -.586E-13 0.484E+01   -.439E-24 0.103E-24 0.308E+00   0.436E-12 -.694E-11 -.269E-04
   0.110E-07 -.476E-07 -.514E+01   -.156E-12 -.546E-13 0.484E+01   -.187E-24 0.103E-24 0.308E+00   0.109E-11 0.413E-11 -.269E-04
   0.110E-07 -.476E-07 -.514E+01   -.114E-12 -.511E-13 0.484E+01   -.183E-24 0.129E-24 0.308E+00   -.218E-11 0.600E-11 -.269E-04
   -.476E-07 0.110E-07 -.514E+01   0.209E-12 -.123E-12 0.484E+01   -.105E-25 -.258E-24 0.308E+00   -.494E-11 -.295E-11 -.269E-04
   -.476E-07 0.110E-07 -.514E+01   0.238E-12 -.130E-12 0.484E+01   0.151E-24 -.775E-25 0.308E+00   0.240E-11 -.187E-11 -.269E-04
   -.476E-07 0.110E-07 -.514E+01   0.206E-12 -.147E-12 0.484E+01   0.308E-25 -.129E-24 0.308E+00   -.517E-12 0.294E-11 -.269E-04
   -.476E-07 0.110E-07 -.514E+01   0.250E-12 -.147E-12 0.484E+01   0.493E-25 -.310E-24 0.308E+00   -.170E-11 0.271E-11 -.269E-04
 -----------------------------------------------------------------------------------------------
   -.892E-06 -.892E-06 -.107E+02   0.149E-12 0.153E-12 0.128E-11   -.221E-15 0.144E-14 0.107E+02   0.444E-12 -.213E-11 -.524E-03
 
 
 POSITION                                       TOTAL-FORCE (eV/Angst)
 -----------------------------------------------------------------------------------
      1.33750      1.32661      1.29187         0.001133     -0.000359     -0.001325
      6.59347      1.37244      1.29187         0.001133     -0.000359     -0.001325
      1.38333      6.58258      1.29187         0.001133     -0.000359     -0.001325
      6.63930      6.62841      1.29187         0.001133     -0.000359     -0.001325
      3.96429      3.97518      1.29187        -0.001133      0.000359     -0.001325
      9.22025      4.02100      1.29187        -0.001133      0.000359     -0.001325
      4.01011      9.23114      1.29187        -0.001133      0.000359     -0.001325
      9.26608      9.27697      1.29187        -0.001133      0.000359     -0.001325
      1.34719      3.94138      9.10355         0.000359     -0.001133     -0.001325
      6.60316      3.98720      9.10355         0.000359     -0.001133     -0.001325
      1.39302      9.19734      9.10355         0.000359     -0.001133     -0.001325
      6.64899      9.24317      9.10355         0.000359     -0.001133     -0.001325
      3.95460      1.36042      9.10355        -0.000359      0.001133     -0.001325
      9.21056      1.40624      9.10355        -0.000359      0.001133     -0.001325
      4.00042      6.61638      9.10355        -0.000359      0.001133     -0.001325
      9.25639      6.66221      9.10355        -0.000359      0.001133     -0.001325
      1.31339      1.32428      6.49966        -0.001133      0.000359     -0.001325
      6.56936      1.37011      6.49966        -0.001133      0.000359     -0.001325
      1.35922      6.58025      6.49966        -0.001133      0.000359     -0.001325
      6.61518      6.62607      6.49966        -0.001133      0.000359     -0.001325
      3.98840      3.97751      6.49966         0.001133     -0.000359     -0.001325
      9.24437      4.02334      6.49966         0.001133     -0.000359     -0.001325
      4.03423      9.23348      6.49966         0.001133     -0.000359     -0.001325
      9.29019      9.27930      6.49966         0.001133     -0.000359     -0.001325
      3.95226      1.33631      3.89577         0.000359     -0.001133     -0.001325
      9.20823      1.38213      3.89577         0.000359     -0.001133     -0.001325
      3.99809      6.59227      3.89577         0.000359     -0.001133     -0.001325
      9.25406      6.63810      3.89577         0.000359     -0.001133     -0.001325
      1.34953      3.96549      3.89577        -0.000359      0.001133     -0.001325
      6.60549      4.01131      3.89577        -0.000359      0.001133     -0.001325
      1.39535      9.22145      3.89577        -0.000359      0.001133     -0.001325
      6.65132      9.26728      3.89577        -0.000359      0.001133     -0.001325
      0.00000      0.00000      5.21652         0.000000     -0.000000      0.000251
      5.25597      0.04583      5.21652         0.000000     -0.000000      0.000251
      0.04583      5.25597      5.21652         0.000000     -0.000000      0.000251
      5.30179      5.30179      5.21652         0.000000     -0.000000      0.000251
      2.62798      0.02291      2.61263         0.000000     -0.000000      0.000251
      7.88395      0.06874      2.61263         0.000000     -0.000000      0.000251
      2.67381      5.27888      2.61263         0.000000     -0.000000      0.000251
      7.92978      5.32471      2.61263         0.000000     -0.000000      0.000251
      2.65090      2.65090      0.00874         0.000000     -0.000000      0.000251
      7.90686      2.69672      0.00874         0.000000     -0.000000      0.000251
      2.69672      7.90686      0.00874         0.000000     -0.000000      0.000251
      7.95269      7.95269      0.00874         0.000000     -0.000000      0.000251
      0.02291      2.62798      7.82042         0.000000     -0.000000      0.000251
      5.27888      2.67381      7.82042         0.000000     -0.000000      0.000251
      0.06874      7.88395      7.82042         0.000000     -0.000000      0.000251
      5.32471      7.92978      7.82042         0.000000     -0.000000      0.000251
      0.00000      0.00000      0.01141         0.000000     -0.000000      0.002400
      5.25597      0.04583      0.01141         0.000000     -0.000000      0.002400
      0.04583      5.25597      0.01141         0.000000     -0.000000      0.002400
      5.30179      5.30179      0.01141         0.000000     -0.000000      0.002400
      2.62798      0.02291      7.82308         0.000000     -0.000000      0.002400
      7.88395      0.06874      7.82308         0.000000     -0.000000      0.002400
      2.67381      5.27888      7.82308         0.000000     -0.000000      0.002400
      7.92978      5.32471      7.82308         0.000000     -0.000000      0.002400
      2.65090      2.65090      5.21919         0.000000     -0.000000      0.002400
      7.90686      2.69672      5.21919         0.000000     -0.000000      0.002400
      2.69672      7.90686      5.21919         0.000000     -0.000000      0.002400
      7.95269      7.95269      5.21919         0.000000     -0.000000      0.002400
      0.02291      2.62798      2.61530         0.000000     -0.000000      0.002400
      5.27888      2.67381      2.61530         0.000000     -0.000000      0.002400
      0.06874      7.88395      2.61530         0.000000     -0.000000      0.002400
      5.32471      7.92978      2.61530         0.000000     -0.000000      0.002400
 -----------------------------------------------------------------------------------
    total drift:                               -0.000001     -0.000001     -0.015421


--------------------------------------------------------------------------------------------------------



  FREE ENERGIE OF THE ION-ELECTRON SYSTEM (eV)
  ---------------------------------------------------
  free  energy   TOTEN  =      -328.09199632 eV

  energy  without entropy=     -328.09199632  energy(sigma->0) =     -328.09199632
 


--------------------------------------------------------------------------------------------------------


    POTLOK:  cpu time    0.1328: real time    0.1334


--------------------------------------------------------------------------------------------------------


 writing wavefunctions
     LOOP+:  cpu time 1567.9017: real time 1579.1612
    4ORBIT:  cpu time    0.0000: real time    0.0000
 


 total charge     
 
# of ion       s       p       d       tot
------------------------------------------
    1        1.313   2.410   0.000   3.724
    2        1.313   2.410   0.000   3.724
    3        1.313   2.410   0.000   3.724
    4        1.313   2.410   0.000   3.724
    5        1.313   2.410   0.000   3.724
    6        1.313   2.410   0.000   3.724
    7        1.313   2.410   0.000   3.724
    8        1.313   2.410   0.000   3.724
    9        1.313   2.410   0.000   3.724
   10        1.313   2.410   0.000   3.724
   11        1.313   2.410   0.000   3.724
   12        1.313   2.410   0.000   3.724
   13        1.313   2.410   0.000   3.724
   14        1.313   2.410   0.000   3.724
   15        1.313   2.410   0.000   3.724
   16        1.313   2.410   0.000   3.724
   17        1.313   2.410   0.000   3.724
   18        1.313   2.410   0.000   3.724
   19        1.313   2.410   0.000   3.724
   20        1.313   2.410   0.000   3.724
   21        1.313   2.410   0.000   3.724
   22        1.313   2.410   0.000   3.724
   23        1.313   2.410   0.000   3.724
   24        1.313   2.410   0.000   3.724
   25        1.313   2.410   0.000   3.724
   26        1.313   2.410   0.000   3.724
   27        1.313   2.410   0.000   3.724
   28        1.313   2.410   0.000   3.724
   29        1.313   2.410   0.000   3.724
   30        1.313   2.410   0.000   3.724
   31        1.313   2.410   0.000   3.724
   32        1.313   2.410   0.000   3.724
   33        0.260   6.202   8.916  15.378
   34        0.260   6.202   8.916  15.378
   35        0.260   6.202   8.916  15.378
   36        0.260   6.202   8.916  15.378
   37        0.260   6.202   8.917  15.378
   38        0.260   6.202   8.917  15.378
   39        0.260   6.202   8.917  15.378
   40        0.260   6.202   8.917  15.378
   41        0.260   6.202   8.916  15.378
   42        0.260   6.202   8.916  15.378
   43        0.260   6.202   8.916  15.378
   44        0.260   6.202   8.916  15.378
   45        0.260   6.202   8.917  15.378
   46        0.260   6.202   8.917  15.378
   47        0.260   6.202   8.917  15.378
   48        0.260   6.202   8.917  15.378
   49        0.350   6.351   5.820  12.521
   50        0.350   6.351   5.820  12.521
   51        0.350   6.351   5.820  12.521
   52        0.350   6.351   5.820  12.521
   53        0.350   6.351   5.820  12.521
   54        0.350   6.351   5.820  12.521
   55        0.350   6.351   5.820  12.521
   56        0.350   6.351   5.820  12.521
   57        0.350   6.351   5.820  12.521
   58        0.350   6.351   5.820  12.521
   59        0.350   6.351   5.820  12.521
   60        0.350   6.351   5.820  12.521
   61        0.350   6.351   5.820  12.521
   62        0.350   6.351   5.820  12.521
   63        0.350   6.351   5.820  12.521
   64        0.350   6.351   5.820  12.521
--------------------------------------------------
tot         51.790 277.979 235.782 565.550
 


 magnetization (x)
 
# of ion       s       p       d       tot
------------------------------------------
    1       -0.000  -0.004   0.000  -0.004
    2       -0.000  -0.004   0.000  -0.004
    3       -0.000  -0.004   0.000  -0.004
    4       -0.000  -0.004   0.000  -0.004
    5       -0.000  -0.004   0.000  -0.004
    6       -0.000  -0.004   0.000  -0.004
    7       -0.000  -0.004   0.000  -0.004
    8       -0.000  -0.004   0.000  -0.004
    9        0.000   0.004   0.000   0.004
   10        0.000   0.004   0.000   0.004
   11        0.000   0.004   0.000   0.004
   12        0.000   0.004   0.000   0.004
   13        0.000   0.004   0.000   0.004
   14        0.000   0.004   0.000   0.004
   15        0.000   0.004   0.000   0.004
   16        0.000   0.004   0.000   0.004
   17       -0.000  -0.004   0.000  -0.004
   18       -0.000  -0.004   0.000  -0.004
   19       -0.000  -0.004   0.000  -0.004
   20       -0.000  -0.004   0.000  -0.004
   21       -0.000  -0.004   0.000  -0.004
   22       -0.000  -0.004   0.000  -0.004
   23       -0.000  -0.004   0.000  -0.004
   24       -0.000  -0.004   0.000  -0.004
   25        0.000   0.004   0.000   0.004
   26        0.000   0.004   0.000   0.004
   27        0.000   0.004   0.000   0.004
   28        0.000   0.004   0.000   0.004
   29        0.000   0.004   0.000   0.004
   30        0.000   0.004   0.000   0.004
   31        0.000   0.004   0.000   0.004
   32        0.000   0.004   0.000   0.004
   33        0.000   0.000  -0.001   0.000
   34        0.000   0.000  -0.001   0.000
   35        0.000   0.000  -0.001   0.000
   36        0.000   0.000  -0.001   0.000
   37       -0.000  -0.000   0.001  -0.000
   38       -0.000  -0.000   0.001  -0.000
   39       -0.000  -0.000   0.001  -0.000
   40       -0.000  -0.000   0.001  -0.000
   41        0.000   0.000  -0.001   0.000
   42        0.000   0.000  -0.001   0.000
   43        0.000   0.000  -0.001   0.000
   44        0.000   0.000  -0.001   0.000
   45       -0.000  -0.000   0.001  -0.000
   46       -0.000  -0.000   0.001  -0.000
   47       -0.000  -0.000   0.001  -0.000
   48       -0.000  -0.000   0.001  -0.000
   49        0.020   0.054   3.671   3.744
   50        0.020   0.054   3.671   3.744
   51        0.020   0.054   3.671   3.744
   52        0.020   0.054   3.671   3.744
   53       -0.020  -0.054  -3.671  -3.744
   54       -0.020  -0.054  -3.671  -3.744
   55       -0.020  -0.054  -3.671  -3.744
   56       -0.020  -0.054  -3.671  -3.744
   57        0.020   0.054   3.671   3.744
   58        0.020   0.054   3.671   3.744
   59        0.020   0.054   3.671   3.744
   60        0.020   0.054   3.671   3.744
   61       -0.020  -0.054  -3.671  -3.744
   62       -0.020  -0.054  -3.671  -3.744
   63       -0.020  -0.054  -3.671  -3.744
   64       -0.020  -0.054  -3.671  -3.744
--------------------------------------------------
tot         -0.000   0.000  -0.000  -0.000
 
 BZINTS: Fermi energy:  4.979678;688.000000 electrons
         Band energy:***********;  BLOECHL correction:  0.000000

 total amount of memory used by VASP MPI-rank0   301249. kBytes
=======================================================================

   base      :      30000. kBytes
   nonl-proj :     175882. kBytes
   fftplans  :       4588. kBytes
   grid      :      69719. kBytes
   one-center:       1990. kBytes
   wavefun   :      19070. kBytes
 
  
  
 General timing and accounting informations for this job:
 ========================================================
  
                  Total CPU time used (sec):     1618.928
                            User time (sec):     1608.629
                          System time (sec):       10.299
                         Elapsed time (sec):     1631.357
  
                   Maximum memory used (kb):      667872.
                   Average memory used (kb):           0.
  
                          Minor page faults:       317217
                          Major page faults:         5641
                 Voluntary context switches:         7214
