       N       E                     dE             d eps       ncg     rms          rms(c)
DAV:   1    -0.305263632543E+03   -0.30526E+03   -0.13337E+03 18944   0.200E+02    0.311E+01
DAV:   2    -0.327836290575E+03   -0.22573E+02   -0.22605E+02 12288   0.224E+01    0.126E+01
DAV:   3    -0.328119819178E+03   -0.28353E+00   -0.34881E+00 19200   0.344E+00    0.927E+00
DAV:   4    -0.328124016364E+03   -0.41972E-02   -0.18882E-01 13568   0.111E+00    0.800E+00
DAV:   5    -0.328124247240E+03   -0.23088E-03   -0.15080E-02 16896   0.338E-01    0.696E+00
DAV:   6    -0.328124011870E+03    0.23537E-03   -0.58044E-04 15360   0.632E-02    0.643E+00
DAV:   7    -0.328123254229E+03    0.75764E-03   -0.54172E-04 16896   0.731E-02    0.494E+00
DAV:   8    -0.328122815866E+03    0.43836E-03   -0.43101E-04 12800   0.601E-02    0.308E+00
DAV:   9    -0.328122689194E+03    0.12667E-03   -0.83533E-05 17408   0.221E-02    0.243E+00
DAV:  10    -0.328122532048E+03    0.15715E-03   -0.19552E-04 13824   0.369E-02    0.115E+00
DAV:  11    -0.328122504555E+03    0.27494E-04   -0.30055E-05 18944   0.130E-02    0.655E-01
DAV:  12    -0.328122490391E+03    0.14164E-04   -0.11942E-05 14336   0.689E-03    0.288E-01
DAV:  13    -0.328122484539E+03    0.58521E-05   -0.55107E-06 16640   0.654E-03    0.752E-02
DAV:  14    -0.328122483336E+03    0.12031E-05   -0.11838E-06 17408   0.233E-03    0.846E-03
DAV:  15    -0.328122483192E+03    0.14393E-06   -0.87067E-08 15872   0.388E-04    0.289E-03
DAV:  16    -0.328122483195E+03   -0.30850E-08   -0.10631E-08  9728   0.194E-04
   1 F= -.32812248E+03 E0= -.32812248E+03  d E =0.000000E+00  mag=     0.0000
