 vasp.5.4.4.18Apr17-6-g9f103f2a35 (build Oct 30 2023 17:30:16) complex          
  
 executed on             LinuxIFC date 2024.06.29  19:00:26
 running on  256 total cores
 distrk:  each k-point on  256 cores,    1 groups
 distr:  one band on NCORES_PER_BAND=   1 cores,  256 groups


--------------------------------------------------------------------------------------------------------


 INCAR:
 POTCAR:    PAW_PBE S 06Sep2000                   
 POTCAR:     PAW_PBE Cu_pv 06Sep2000              
 POTCAR:     PAW_PBE Fe_pv 02Aug2007              

 ----------------------------------------------------------------------------- 
|                                                                             |
|           W    W    AA    RRRRR   N    N  II  N    N   GGGG   !!!           |
|           W    W   A  A   R    R  NN   N  II  NN   N  G    G  !!!           |
|           W    W  A    A  R    R  N N  N  II  N N  N  G       !!!           |
|           W WW W  AAAAAA  RRRRR   N  N N  II  N  N N  G  GGG   !            |
|           WW  WW  A    A  R   R   N   NN  II  N   NN  G    G                |
|           W    W  A    A  R    R  N    N  II  N    N   GGGG   !!!           |
|                                                                             |
|      For optimal performance we recommend to set                            |
|        NCORE= 4 - approx SQRT( number of cores)                             |
|      NCORE specifies how many cores store one orbital (NPAR=cpu/NCORE).     |
|      This setting can  greatly improve the performance of VASP for DFT.     |
|      The default,   NCORE=1            might be grossly inefficient         |
|      on modern multi-core architectures or massively parallel machines.     |
|      Do your own testing !!!!                                               |
|      Unfortunately you need to use the default for GW and RPA calculations. |
|      (for HF NCORE is supported but not extensively tested yet)             |
|                                                                             |
 ----------------------------------------------------------------------------- 

 POTCAR:    PAW_PBE S 06Sep2000                   
   SHA256 =  0fc7481fb0695f01bdc6462160264c5c84044ae9ec85a907d398b887a2bc3132 S/
   COPYR  = (c) Copyright 06Sep2000 Georg Kresse                                
   COPYR  = This file is part of the software VASP. Any use, copying, and all ot
   COPYR  = If you do not have a valid VASP license, you may not use, copy or di
   VRHFIN =S : s2p4                                                             
   LEXCH  = PE                                                                  
   EATOM  =   276.8230 eV,   20.3459 Ry                                         
                                                                                
   TITEL  = PAW_PBE S 06Sep2000                                                 
   LULTRA =        F    use ultrasoft PP ?                                      
   IUNSCR =        1    unscreen: 0-lin 1-nonlin 2-no                           
   RPACOR =    1.500    partial core radius                                     
   POMASS =   32.066; ZVAL   =    6.000    mass and valenz                      
   RCORE  =    1.900    outmost cutoff radius                                   
   RWIGS  =    2.200; RWIGS  =    1.164    wigner-seitz radius (au A)           
   ENMAX  =  258.689; ENMIN  =  194.016 eV                                      
   ICORE  =        2    local potential                                         
   LCOR   =        T    correct aug charges                                     
   LPAW   =        T    paw PP                                                  
   EAUG   =  335.092                                                            
   DEXC   =    0.000                                                            
   RMAX   =    1.942    core radius for proj-oper                               
   RAUG   =    1.300    factor for augmentation sphere                          
   RDEP   =    1.954    radius for radial grids                                 
   RDEPT  =    1.744    core radius for aug-charge                              
                                                                                
   Atomic configuration                                                         
    6 entries                                                                   
     n  l   j            E        occ.                                          
     1  0  0.50     -2405.8406   2.0000                                         
     2  0  0.50      -211.7007   2.0000                                         
     2  1  1.50      -156.4958   6.0000                                         
     3  0  0.50       -17.2562   2.0000                                         
     3  1  0.50        -7.0085   4.0000                                         
     3  2  1.50        -6.8029   0.0000                                         
   Description                                                                  
     l       E           TYP  RCUT    TYP  RCUT                                 
     0    -17.2561641     23  1.900                                             
     0    -15.8743224     23  1.900                                             
     1     -7.0085400     23  1.900                                             
     1     -2.7779785     23  1.900                                             
     2     -6.8029130     23  1.900                                             
  local pseudopotential read in
  partial core-charges read in
  partial kinetic energy density read in
  atomic valenz-charges read in
  non local Contribution for L=           0  read in
    real space projection operators read in
  non local Contribution for L=           0  read in
    real space projection operators read in
  non local Contribution for L=           1  read in
    real space projection operators read in
  non local Contribution for L=           1  read in
    real space projection operators read in
    PAW grid and wavefunctions read in
 
   number of l-projection  operators is LMAX  =           4
   number of lm-projection operators is LMMAX =           8
 
 POTCAR:     PAW_PBE Cu_pv 06Sep2000              
   SHA256 =  cb7b504e2ea725fe1f25c85a9ac77d4012ce94cd394135b722c4e25ec297f1cb Cu
   COPYR  = (c) Copyright 06Sep2000 Georg Kresse                                
   COPYR  = This file is part of the software VASP. Any use, copying, and all ot
   COPYR  = If you do not have a valid VASP license, you may not use, copy or di
   VRHFIN =Cu: d10 p1                                                           
   LEXCH  = PE                                                                  
   EATOM  =  4120.1201 eV,  302.8203 Ry                                         
                                                                                
   TITEL  = PAW_PBE Cu_pv 06Sep2000                                             
   LULTRA =        F    use ultrasoft PP ?                                      
   IUNSCR =        1    unscreen: 0-lin 1-nonlin 2-no                           
   RPACOR =    1.500    partial core radius                                     
   POMASS =   63.546; ZVAL   =   17.000    mass and valenz                      
   RCORE  =    2.000    outmost cutoff radius                                   
   RWIGS  =    2.000; RWIGS  =    1.058    wigner-seitz radius (au A)           
   ENMAX  =  368.648; ENMIN  =  276.486 eV                                      
   RCLOC  =    1.304    cutoff for local pot                                    
   LCOR   =        T    correct aug charges                                     
   LPAW   =        T    paw PP                                                  
   EAUG   =  758.233                                                            
   DEXC   =    0.000                                                            
   RMAX   =    2.046    core radius for proj-oper                               
   RAUG   =    1.300    factor for augmentation sphere                          
   RDEP   =    2.025    radius for radial grids                                 
   RDEPT  =    1.558    core radius for aug-charge                              
                                                                                
   Atomic configuration                                                         
    8 entries                                                                   
     n  l   j            E        occ.                                          
     1  0  0.50     -8850.2467   2.0000                                         
     2  0  0.50     -1062.3498   2.0000                                         
     2  1  1.50      -916.8226   6.0000                                         
     3  0  0.50      -114.6929   2.0000                                         
     3  1  1.50       -72.1325   6.0000                                         
     3  2  2.50        -5.0394  10.0000                                         
     4  0  0.50        -4.6097   1.0000                                         
     4  3  2.50        -1.3606   0.0000                                         
   Description                                                                  
     l       E           TYP  RCUT    TYP  RCUT                                 
     1    -72.1324777     23  1.700                                             
     1     -1.3605826     23  1.700                                             
     2     -5.0393776     23  2.000                                             
     2     -6.3999602     23  2.000                                             
     0     -4.6097062     23  1.800                                             
     0     14.1620818     23  1.800                                             
  local pseudopotential read in
  partial core-charges read in
  partial kinetic energy density read in
  atomic valenz-charges read in
  non local Contribution for L=           1  read in
    real space projection operators read in
  non local Contribution for L=           1  read in
    real space projection operators read in
  non local Contribution for L=           2  read in
    real space projection operators read in
  non local Contribution for L=           2  read in
    real space projection operators read in
  non local Contribution for L=           0  read in
    real space projection operators read in
  non local Contribution for L=           0  read in
    real space projection operators read in
    PAW grid and wavefunctions read in
 
   number of l-projection  operators is LMAX  =           6
   number of lm-projection operators is LMMAX =          18
 
 POTCAR:     PAW_PBE Fe_pv 02Aug2007              
   SHA256 =  5d22e414b1f82158bf2c7ecb8b97b28fd0923e48cadc1c3bf74d524558f5dd32 Fe
   COPYR  = (c) Copyright 02Aug2007 Georg Kresse                                
   COPYR  = This file is part of the software VASP. Any use, copying, and all ot
   COPYR  = If you do not have a valid VASP license, you may not use, copy or di
   VRHFIN =Fe:  3pd7s1                                                          
   LEXCH  = PE                                                                  
   EATOM  =  2457.4239 eV,  180.6156 Ry                                         
                                                                                
   TITEL  = PAW_PBE Fe_pv 02Aug2007                                             
   LULTRA =        F    use ultrasoft PP ?                                      
   IUNSCR =        1    unscreen: 0-lin 1-nonlin 2-no                           
   RPACOR =    1.750    partial core radius                                     
   POMASS =   55.847; ZVAL   =   14.000    mass and valenz                      
   RCORE  =    2.200    outmost cutoff radius                                   
   RWIGS  =    2.200; RWIGS  =    1.164    wigner-seitz radius (au A)           
   ENMAX  =  293.238; ENMIN  =  219.928 eV                                      
   ICORE  =        3    local potential                                         
   LCOR   =        T    correct aug charges                                     
   LPAW   =        T    paw PP                                                  
   EAUG   =  578.342                                                            
   DEXC   =    0.000                                                            
   RMAX   =    2.249    core radius for proj-oper                               
   RAUG   =    1.300    factor for augmentation sphere                          
   RDEP   =    2.296    radius for radial grids                                 
   RDEPT  =    1.766    core radius for aug-charge                              
                                                                                
   Atomic configuration                                                         
    8 entries                                                                   
     n  l   j            E        occ.                                          
     1  0  0.50     -6993.8440   2.0000                                         
     2  0  0.50      -814.6047   2.0000                                         
     2  1  1.50      -693.3689   6.0000                                         
     3  0  0.50       -89.4732   2.0000                                         
     3  1  1.50       -55.6373   6.0000                                         
     3  2  2.50        -3.8151   7.0000                                         
     4  0  0.50        -4.2551   1.0000                                         
     4  3  2.50        -1.3606   0.0000                                         
   Description                                                                  
     l       E           TYP  RCUT    TYP  RCUT                                 
     1    -55.6372668     23  2.000                                             
     1     -5.4423304     23  2.000                                             
     2     -3.8151096     23  2.200                                             
     2     -5.1756922     23  2.200                                             
     0     -4.2550951     23  2.200                                             
     0     27.2116520     23  2.200                                             
     3     -1.3605826     23  2.200                                             
  local pseudopotential read in
  partial core-charges read in
  partial kinetic energy density read in
  atomic valenz-charges read in
  non local Contribution for L=           1  read in
    real space projection operators read in
  non local Contribution for L=           1  read in
    real space projection operators read in
  non local Contribution for L=           2  read in
    real space projection operators read in
  non local Contribution for L=           2  read in
    real space projection operators read in
  non local Contribution for L=           0  read in
    real space projection operators read in
  non local Contribution for L=           0  read in
    real space projection operators read in
    PAW grid and wavefunctions read in
 
   number of l-projection  operators is LMAX  =           6
   number of lm-projection operators is LMMAX =          18
 

 ----------------------------------------------------------------------------- 
|                                                                             |
|  ADVICE TO THIS USER RUNNING 'VASP/VAMP'   (HEAR YOUR MASTER'S VOICE ...):  |
|                                                                             |
|      You have a (more or less) 'large supercell' and for larger cells       |
|      it might be more efficient to use real space projection opertators     |
|      So try LREAL= Auto  in the INCAR   file.                               |
|      Mind:          For very  accurate calculation you might also keep the  |
|      reciprocal projection scheme          (i.e. LREAL=.FALSE.)             |
|                                                                             |
 ----------------------------------------------------------------------------- 


 ----------------------------------------------------------------------------- 
|                                                                             |
|  ADVICE TO THIS USER RUNNING 'VASP/VAMP'   (HEAR YOUR MASTER'S VOICE ...):  |
|                                                                             |
|      You enforced a specific xc-type in the INCAR file,                     |
|      a different type was found on the POTCAR file                          |
|          I HOPE YOU KNOW, WHAT YOU ARE  DOING                               |
|                                                                             |
 ----------------------------------------------------------------------------- 

  PAW_PBE S 06Sep2000                   :
 energy of atom  1       EATOM= -276.8230
 kinetic energy error for atom=    0.0007 (will be added to EATOM!!)
   PAW_PBE Cu_pv 06Sep2000              :
 energy of atom  2       EATOM=-4120.1201
 kinetic energy error for atom=    0.0094 (will be added to EATOM!!)
   PAW_PBE Fe_pv 02Aug2007              :
 energy of atom  3       EATOM=-2457.4239
 kinetic energy error for atom=    0.0025 (will be added to EATOM!!)
 
 
 POSCAR: Fe16 Cu16 S32                           
  positions in direct lattice
  No initial velocities read in
 exchange correlation table for  LEXCH =       14
   RHO(1)=    0.500       N(1)  =     2000
   RHO(2)=  100.500       N(2)  =     4000
 


--------------------------------------------------------------------------------------------------------


 ion  position               nearest neighbor table
   1  0.126  0.125  0.125-  37 2.26  41 2.26  61 2.28  49 2.28
   2  0.626  0.125  0.125-  38 2.26  42 2.26  62 2.28  50 2.28
   3  0.126  0.625  0.125-  39 2.26  43 2.26  63 2.28  51 2.28
   4  0.626  0.625  0.125-  40 2.26  44 2.26  64 2.28  52 2.28
   5  0.374  0.375  0.125-  39 2.26  41 2.26  62 2.28  52 2.28
   6  0.874  0.375  0.125-  40 2.26  42 2.26  61 2.28  51 2.28
   7  0.374  0.875  0.125-  37 2.26  43 2.26  64 2.28  50 2.28
   8  0.874  0.875  0.125-  38 2.26  44 2.26  63 2.28  49 2.28
   9  0.125  0.374  0.875-  41 2.26  45 2.26  51 2.28  55 2.28
  10  0.625  0.374  0.875-  42 2.26  46 2.26  52 2.28  56 2.28
  11  0.125  0.874  0.875-  43 2.26  47 2.26  49 2.28  53 2.28
  12  0.625  0.874  0.875-  44 2.26  48 2.26  50 2.28  54 2.28
  13  0.375  0.126  0.875-  41 2.26  46 2.26  50 2.28  53 2.28
  14  0.875  0.126  0.875-  42 2.26  45 2.26  49 2.28  54 2.28
  15  0.375  0.626  0.875-  43 2.26  48 2.26  52 2.28  55 2.28
  16  0.875  0.626  0.875-  44 2.26  47 2.26  51 2.28  56 2.28
  17  0.124  0.125  0.625-  45 2.26  33 2.26  53 2.28  57 2.28
  18  0.624  0.125  0.625-  46 2.26  34 2.26  54 2.28  58 2.28
  19  0.124  0.625  0.625-  47 2.26  35 2.26  55 2.28  59 2.28
  20  0.624  0.625  0.625-  48 2.26  36 2.26  56 2.28  60 2.28
  21  0.376  0.375  0.625-  46 2.26  36 2.26  55 2.28  57 2.28
  22  0.876  0.375  0.625-  45 2.26  35 2.26  56 2.28  58 2.28
  23  0.376  0.875  0.625-  48 2.26  34 2.26  53 2.28  59 2.28
  24  0.876  0.875  0.625-  47 2.26  33 2.26  54 2.28  60 2.28
  25  0.375  0.124  0.375-  34 2.26  37 2.26  57 2.28  62 2.28
  26  0.875  0.124  0.375-  33 2.26  38 2.26  58 2.28  61 2.28
  27  0.375  0.624  0.375-  36 2.26  39 2.26  59 2.28  64 2.28
  28  0.875  0.624  0.375-  35 2.26  40 2.26  60 2.28  63 2.28
  29  0.125  0.376  0.375-  35 2.26  39 2.26  57 2.28  61 2.28
  30  0.625  0.376  0.375-  36 2.26  40 2.26  58 2.28  62 2.28
  31  0.125  0.876  0.375-  33 2.26  37 2.26  59 2.28  63 2.28
  32  0.625  0.876  0.375-  34 2.26  38 2.26  60 2.28  64 2.28
  33  0.000  0.000  0.500-  26 2.26  31 2.26  17 2.26  24 2.26
  34  0.500  0.000  0.500-  25 2.26  32 2.26  18 2.26  23 2.26
  35  0.000  0.500  0.500-  28 2.26  29 2.26  19 2.26  22 2.26
  36  0.500  0.500  0.500-  27 2.26  30 2.26  20 2.26  21 2.26
  37  0.250  0.000  0.250-   1 2.26   7 2.26  25 2.26  31 2.26
  38  0.750  0.000  0.250-   2 2.26   8 2.26  26 2.26  32 2.26
  39  0.250  0.500  0.250-   3 2.26   5 2.26  27 2.26  29 2.26
  40  0.750  0.500  0.250-   4 2.26   6 2.26  28 2.26  30 2.26
  41  0.250  0.250  0.000-   9 2.26  13 2.26   1 2.26   5 2.26
  42  0.750  0.250  0.000-  10 2.26  14 2.26   2 2.26   6 2.26
  43  0.250  0.750  0.000-  11 2.26  15 2.26   3 2.26   7 2.26
  44  0.750  0.750  0.000-  12 2.26  16 2.26   4 2.26   8 2.26
  45  0.000  0.250  0.750-  17 2.26  22 2.26   9 2.26  14 2.26
  46  0.500  0.250  0.750-  18 2.26  21 2.26  10 2.26  13 2.26
  47  0.000  0.750  0.750-  19 2.26  24 2.26  11 2.26  16 2.26
  48  0.500  0.750  0.750-  20 2.26  23 2.26  12 2.26  15 2.26
  49  0.000  0.000  0.000-  11 2.28  14 2.28   1 2.28   8 2.28
  50  0.500  0.000  0.000-  12 2.28  13 2.28   2 2.28   7 2.28
  51  0.000  0.500  0.000-   9 2.28  16 2.28   3 2.28   6 2.28
  52  0.500  0.500  0.000-  10 2.28  15 2.28   4 2.28   5 2.28
  53  0.250  0.000  0.750-  17 2.28  23 2.28  11 2.28  13 2.28
  54  0.750  0.000  0.750-  18 2.28  24 2.28  12 2.28  14 2.28
  55  0.250  0.500  0.750-  19 2.28  21 2.28   9 2.28  15 2.28
  56  0.750  0.500  0.750-  20 2.28  22 2.28  10 2.28  16 2.28
  57  0.250  0.250  0.500-  25 2.28  29 2.28  17 2.28  21 2.28
  58  0.750  0.250  0.500-  26 2.28  30 2.28  18 2.28  22 2.28
  59  0.250  0.750  0.500-  27 2.28  31 2.28  19 2.28  23 2.28
  60  0.750  0.750  0.500-  28 2.28  32 2.28  20 2.28  24 2.28
  61  0.000  0.250  0.250-   1 2.28   6 2.28  26 2.28  29 2.28
  62  0.500  0.250  0.250-   2 2.28   5 2.28  25 2.28  30 2.28
  63  0.000  0.750  0.250-   3 2.28   8 2.28  28 2.28  31 2.28
  64  0.500  0.750  0.250-   4 2.28   7 2.28  27 2.28  32 2.28
 
  LATTYP: Found a base centered orthorhombic cell.
 ALAT       =    14.8447239926
 B/A-ratio  =     1.0034924913
 C/A-ratio  =     0.7013839399
  
  Lattice vectors:
  
 A1 = (  10.5151350000,   0.0183300000,   0.0000000000)
 A2 = (  -0.0183300000, -10.5151350000,   0.0000000000)
 A3 = (   0.0000000000,   0.0000000000, -10.4118510000)


Analysis of symmetry for initial positions (statically):
=====================================================================
 Subroutine PRICEL returns following result:
 
  LATTYP: Found a face centered orthorhombic cell.
 ALAT       =     7.4223619963
 B/A-ratio  =     1.0034924913
 C/A-ratio  =     1.4027678797
  
  Lattice vectors:
  
 A1 = (  -2.6333662500,  -2.6333662500,   5.2059255000)
 A2 = (  -2.6242012500,   2.6242012500,   5.2059255000)
 A3 = (  -5.2575675000,  -0.0091650000,   0.0000000000)
 
   8 primitive cells build up your supercell.
 

 Routine SETGRP: Setting up the symmetry group for a 
 base centered orthorhombic supercell.


 Subroutine GETGRP returns: Found  4 space group operations
 (whereof  2 operations were pure point group operations)
 out of a pool of  8 trial point group operations.


The static configuration has the point symmetry C_2 .
 The point group associated with its full space group is C_2v.


Analysis of symmetry for dynamics (positions and initial velocities):
=====================================================================
 Subroutine PRICEL returns following result:
 
  LATTYP: Found a face centered orthorhombic cell.
 ALAT       =     7.4223619963
 B/A-ratio  =     1.0034924913
 C/A-ratio  =     1.4027678797
  
  Lattice vectors:
  
 A1 = (  -2.6333662500,  -2.6333662500,   5.2059255000)
 A2 = (  -2.6242012500,   2.6242012500,   5.2059255000)
 A3 = (  -5.2575675000,  -0.0091650000,   0.0000000000)
 
   8 primitive cells build up your supercell.
 

 Routine SETGRP: Setting up the symmetry group for a 
 base centered orthorhombic supercell.


 Subroutine GETGRP returns: Found  4 space group operations
 (whereof  2 operations were pure point group operations)
 out of a pool of  8 trial point group operations.


The dynamic configuration has the point symmetry C_2 .
 The point group associated with its full space group is C_2v.


Analysis of structural, dynamic, and magnetic symmetry:
=====================================================================
 Subroutine PRICEL returns following result:
 
  LATTYP: Found a face centered orthorhombic cell.
 ALAT       =     7.4223619963
 B/A-ratio  =     1.0034924913
 C/A-ratio  =     1.4027678797
  
  Lattice vectors:
  
 A1 = (  -2.6333662500,  -2.6333662500,   5.2059255000)
 A2 = (  -2.6242012500,   2.6242012500,   5.2059255000)
 A3 = (  -5.2575675000,  -0.0091650000,   0.0000000000)
 
   8 primitive cells build up your supercell.
 

 Routine SETGRP: Setting up the symmetry group for a 
 base centered orthorhombic supercell.


 Subroutine GETGRP returns: Found  4 space group operations
 (whereof  2 operations were pure point group operations)
 out of a pool of  8 trial point group operations.


The magnetic configuration has the point symmetry C_2 .
 The point group associated with its full space group is C_2v.


 Subroutine INISYM returns: Found  4 space group operations
 (whereof  2 operations are pure point group operations),
 and found     8 'primitive' translations

 
 
 KPOINTS: Automatic mesh                          

Automatic generation of k-mesh.
Space group operators:
 irot       det(A)        alpha          n_x          n_y          n_z        tau_x        tau_y        tau_z
    1     1.000000     0.000000     1.000000     0.000000     0.000000     0.000000     0.000000     0.000000
    2     1.000000   180.000000     0.000000     0.000000     1.000000     0.000000     0.000000     0.000000
    3    -1.000000   180.000000     0.707107     0.707107     0.000000    -0.750000     0.000000     0.750000
    4    -1.000000   180.000000     0.707107    -0.707107     0.000000    -0.750000     0.000000     0.750000
 
 Subroutine IBZKPT returns following result:
 ===========================================
 
 Found      6 irreducible k-points:
 
 Following reciprocal coordinates:
            Coordinates               Weight
  0.000000  0.000000  0.000000      1.000000
  0.500000  0.000000  0.000000      2.000000
  0.500000  0.500000  0.000000      1.000000
  0.000000  0.000000  0.500000      1.000000
  0.500000  0.000000  0.500000      2.000000
  0.500000  0.500000  0.500000      1.000000
 
 Following cartesian coordinates:
            Coordinates               Weight
  0.000000  0.000000  0.000000      1.000000
  0.047551 -0.000083  0.000000      2.000000
  0.047468  0.047468  0.000000      1.000000
  0.000000  0.000000  0.048022      1.000000
  0.047551 -0.000083  0.048022      2.000000
  0.047468  0.047468  0.048022      1.000000
 
 TETIRR: Found     12 inequivalent tetrahedra from       48
 
 Subroutine IBZKPT_HF returns following result:
 ==============================================
 
 Found      8 k-points in 1st BZ
 the following      8 k-points will be used (e.g. in the exchange kernel)
 Following reciprocal coordinates:   # in IRBZ
  0.000000  0.000000  0.000000    0.12500000   1 t-inv F
  0.500000  0.000000  0.000000    0.12500000   2 t-inv F
  0.500000  0.500000  0.000000    0.12500000   3 t-inv F
  0.000000  0.000000  0.500000    0.12500000   4 t-inv F
  0.500000  0.000000  0.500000    0.12500000   5 t-inv F
  0.500000  0.500000  0.500000    0.12500000   6 t-inv F
 -0.000000 -0.500000  0.000000    0.12500000   2 t-inv F spinflp
 -0.000000 -0.500000  0.500000    0.12500000   5 t-inv F spinflp


--------------------------------------------------------------------------------------------------------




 Dimension of arrays:
   k-points           NKPTS =      6   k-points in BZ     NKDIM =      6   number of bands    NBANDS=    512
   number of dos      NEDOS =    301   number of ions     NIONS =     64
   non local maximal  LDIM  =      6   non local SUM 2l+1 LMDIM =     18
   total plane-waves  NPLWV = 829440
   max r-space proj   IRMAX =      1   max aug-charges    IRDMAX=  22896
   dimension x,y,z NGX =    96 NGY =   96 NGZ =   90
   dimension x,y,z NGXF=   192 NGYF=  192 NGZF=  180
   support grid    NGXF=   192 NGYF=  192 NGZF=  180
   ions per type =              32  16  16
   NGX,Y,Z   is equivalent  to a cutoff of  15.18, 15.18, 14.37 a.u.
   NGXF,Y,Z  is equivalent  to a cutoff of  30.36, 30.36, 28.74 a.u.

 SYSTEM =  CuFeS2                                  
 POSCAR =  Fe16 Cu16 S32                           

 Startparameter for this run:
   NWRITE =      2    write-flag & timer
   PREC   = accura    normal or accurate (medium, high low for compatibility)
   ISTART =      1    job   : 0-new  1-cont  2-samecut
   ICHARG =      1    charge: 1-file 2-atom 10-const
   ISPIN  =      2    spin polarized calculation?
   LNONCOLLINEAR =      F non collinear calculations
   LSORBIT =      F    spin-orbit coupling
   INIWAV =      1    electr: 0-lowe 1-rand  2-diag
   LASPH  =      F    aspherical Exc in radial PAW
   METAGGA=      F    non-selfconsistent MetaGGA calc.

 Electronic Relaxation 1
   ENCUT  =  700.0 eV  51.45 Ry    7.17 a.u.  22.68 22.68 22.46*2*pi/ulx,y,z
   ENINI  =  700.0     initial cutoff
   ENAUG  =  758.2 eV  augmentation charge cutoff
   NELM   =    500;   NELMIN=  2; NELMDL=  0     # of ELM steps 
   EDIFF  = 0.1E-07   stopping-criterion for ELM
   LREAL  =      F    real-space projection
   NLSPLINE    = F    spline interpolate recip. space projectors
   LCOMPAT=      F    compatible to vasp.4.4
   GGA_COMPAT  = T    GGA compatible to vasp.4.4-vasp.4.6
   LMAXPAW     = -100 max onsite density
   LMAXMIX     =    4 max onsite mixed and CHGCAR
   VOSKOWN=      0    Vosko Wilk Nusair interpolation
   ROPT   =    0.00000   0.00000   0.00000
 Ionic relaxation
   EDIFFG = -.1E-04   stopping-criterion for IOM
   NSW    =      0    number of steps for IOM
   NBLOCK =      1;   KBLOCK =      1    inner block; outer block 
   IBRION =     -1    ionic relax: 0-MD 1-quasi-New 2-CG
   NFREE  =      0    steps in history (QN), initial steepest desc. (CG)
   ISIF   =      2    stress and relaxation
   IWAVPR =     10    prediction:  0-non 1-charg 2-wave 3-comb
   ISYM   =      2    0-nonsym 1-usesym 2-fastsym
   LCORR  =      T    Harris-Foulkes like correction to forces

   POTIM  = 0.5000    time-step for ionic-motion
   TEIN   =    0.0    initial temperature
   TEBEG  =    0.0;   TEEND  =   0.0 temperature during run
   SMASS  =  -3.00    Nose mass-parameter (am)
   estimated Nose-frequenzy (Omega)   =  0.10E-29 period in steps =****** mass=  -0.253E-26a.u.
   SCALEE = 1.0000    scale energy and forces
   NPACO  =    256;   APACO  = 16.0  distance and # of slots for P.C.
   PSTRESS=    0.0 pullay stress

  Mass of Ions in am
   POMASS =  32.07 63.55 55.85
  Ionic Valenz
   ZVAL   =   6.00 17.00 14.00
  Atomic Wigner-Seitz radii
   RWIGS  =  -1.00 -1.00 -1.00
  virtual crystal weights 
   VCA    =   1.00  1.00  1.00
   NELECT =     688.0000    total number of electrons
   NUPDOWN=      -1.0000    fix difference up-down

 DOS related values:
   EMIN   =  10.00;   EMAX   =-10.00  energy-range for DOS
   EFERMI =   0.00
   ISMEAR =    -5;   SIGMA  =   0.03  broadening in eV -4-tet -1-fermi 0-gaus

 Electronic relaxation 2 (details)
   IALGO  =     38    algorithm
   LDIAG  =      T    sub-space diagonalisation (order eigenvalues)
   LSUBROT=      F    optimize rotation matrix (better conditioning)
   TURBO    =      0    0=normal 1=particle mesh
   IRESTART =      0    0=no restart 2=restart with 2 vectors
   NREBOOT  =      0    no. of reboots
   NMIN     =      0    reboot dimension
   EREF     =   0.00    reference energy to select bands
   IMIX   =      4    mixing-type and parameters
     AMIX     =   0.40;   BMIX     =  1.00
     AMIX_MAG =   1.60;   BMIX_MAG =  1.00
     AMIN     =   0.10
     WC   =   100.;   INIMIX=   1;  MIXPRE=   1;  MAXMIX= -45

 Intra band minimization:
   WEIMIN = 0.0000     energy-eigenvalue tresh-hold
   EBREAK =  0.49E-11  absolut break condition
   DEPER  =   0.30     relativ break condition  

   TIME   =   0.40     timestep for ELM

  volume/ion in A,a.u.               =      17.99       121.39
  Fermi-wavevector in a.u.,A,eV,Ry     =   1.378962  2.605860 25.871959  1.901535
  Thomas-Fermi vector in A             =   2.503975
 
 Write flags
   LWAVE        =      T    write WAVECAR
   LDOWNSAMPLE  =      F    k-point downsampling of WAVECAR
   LCHARG       =      T    write CHGCAR
   LVTOT        =      F    write LOCPOT, total local potential
   LVHAR        =      F    write LOCPOT, Hartree potential only
   LELF         =      F    write electronic localiz. function (ELF)
   LORBIT       =     11    0 simple, 1 ext, 2 COOP (PROOUT), +10 PAW based schemes


 Dipole corrections
   LMONO  =      F    monopole corrections only (constant potential shift)
   LDIPOL =      F    correct potential (dipole corrections)
   IDIPOL =      0    1-x, 2-y, 3-z, 4-all directions 
   EPSILON=  1.0000000 bulk dielectric constant

 LDA+U is selected, type is set to LDAUTYPE =  2
   angular momentum for each species LDAUL =     2    2    2
   U (eV)           for each species LDAUU =   0.0  0.1  4.7
   J (eV)           for each species LDAUJ =   0.0  0.0  0.0
 Exchange correlation treatment:
   GGA     =    PS    GGA type
   LEXCH   =    14    internal setting for exchange type
   VOSKOWN=      0    Vosko Wilk Nusair interpolation
   LHFCALC =     F    Hartree Fock is set to
   LHFONE  =     F    Hartree Fock one center treatment
   AEXX    =    0.0000 exact exchange contribution

 Linear response parameters
   LEPSILON=     F    determine dielectric tensor
   LRPA    =     F    only Hartree local field effects (RPA)
   LNABLA  =     F    use nabla operator in PAW spheres
   LVEL    =     F    velocity operator in full k-point grid
   LINTERFAST=   F  fast interpolation
   KINTER  =     0    interpolate to denser k-point grid
   CSHIFT  =0.1000    complex shift for real part using Kramers Kronig
   OMEGAMAX=  -1.0    maximum frequency
   DEG_THRESHOLD= 0.2000000E-02 threshold for treating states as degnerate
   RTIME   =   -0.100 relaxation time in fs
  (WPLASMAI=    0.000 imaginary part of plasma frequency in eV, 0.658/RTIME)
   DFIELD  = 0.0000000 0.0000000 0.0000000 field for delta impulse in time
 
 Orbital magnetization related:
   ORBITALMAG=     F  switch on orbital magnetization
   LCHIMAG   =     F  perturbation theory with respect to B field
   DQ        =  0.001000  dq finite difference perturbation B field
   LLRAUG    =     F  two centre corrections for induced B field

 PEAD related settings:
   LPEAD      =     T    switch on PEAD
   IPEAD      =     4    finite difference order for dpsi/dk
   LCALCPOL   =     T    calculate macroscopic polarization
   LCALCEPS   =     F    calculate dielectric tensor
   EFIELD_PEAD=    0.0000    0.0000    0.0000
   SKIP_EDOTP =     F
   LRPA       =     F
   SKIP_SCF   =     F


--------------------------------------------------------------------------------------------------------


 Static calculation
 charge density and potential will be updated during run
 spin polarized calculation
 Variant of blocked Davidson
 Davidson routine will perform the subspace rotation
 perform sub-space diagonalisation
    after iterative eigenvector-optimisation
 modified Broyden-mixing scheme, WC =      100.0
 initial mixing is a Kerker type mixing with AMIX =  0.4000 and BMIX =      1.0000
 Hartree-type preconditioning will be used
 using additional bands          168
 reciprocal scheme for non local part
 use partial core corrections
 calculate Harris-corrections to forces 
   (improved forces if not selfconsistent)
 use gradient corrections 
 use of overlap-Matrix (Vanderbilt PP)
 Fermi weights with tetrahedron method with Bloechl corrections


--------------------------------------------------------------------------------------------------------


  energy-cutoff  :      700.00
  volume of cell :     1151.21
      direct lattice vectors                 reciprocal lattice vectors
    10.515135000  0.018330000  0.000000000     0.095101303 -0.000165781  0.000000000
     0.018330000 10.515135000  0.000000000    -0.000165781  0.095101303  0.000000000
     0.000000000  0.000000000 10.411851000     0.000000000  0.000000000  0.096044402

  length of vectors
    10.515150976 10.515150976 10.411851000     0.095101447  0.095101447  0.096044402


 
 old parameters found on file WAVECAR:
  energy-cutoff  :      700.00
  volume of cell :     1151.21
      direct lattice vectors                 reciprocal lattice vectors
    10.515135000  0.018330000  0.000000000     0.095101303 -0.000165781  0.000000000
     0.018330000 10.515135000  0.000000000    -0.000165781  0.095101303  0.000000000
     0.000000000  0.000000000 10.411851000     0.000000000  0.000000000  0.096044402

  length of vectors

 
 k-points in units of 2pi/SCALE and weight: Automatic mesh                          
   0.00000000  0.00000000  0.00000000       0.125
   0.04755065 -0.00008289  0.00000000       0.250
   0.04746776  0.04746776  0.00000000       0.125
   0.00000000  0.00000000  0.04802220       0.125
   0.04755065 -0.00008289  0.04802220       0.250
   0.04746776  0.04746776  0.04802220       0.125
 
 k-points in reciprocal lattice and weights: Automatic mesh                          
   0.00000000  0.00000000  0.00000000       0.125
   0.50000000  0.00000000  0.00000000       0.250
   0.50000000  0.50000000  0.00000000       0.125
   0.00000000  0.00000000  0.50000000       0.125
   0.50000000  0.00000000  0.50000000       0.250
   0.50000000  0.50000000  0.50000000       0.125
 
 position of ions in fractional coordinates (direct lattice) 
   0.12615700  0.12502200  0.12480500
   0.62615700  0.12502200  0.12480500
   0.12615700  0.62502200  0.12480500
   0.62615700  0.62502200  0.12480500
   0.37384300  0.37497800  0.12480500
   0.87384300  0.37497800  0.12480500
   0.37384300  0.87497800  0.12480500
   0.87384300  0.87497800  0.12480500
   0.12497800  0.37384300  0.87480500
   0.62497800  0.37384300  0.87480500
   0.12497800  0.87384300  0.87480500
   0.62497800  0.87384300  0.87480500
   0.37502200  0.12615700  0.87480500
   0.87502200  0.12615700  0.87480500
   0.37502200  0.62615700  0.87480500
   0.87502200  0.62615700  0.87480500
   0.12384300  0.12497800  0.62480500
   0.62384300  0.12497800  0.62480500
   0.12384300  0.62497800  0.62480500
   0.62384300  0.62497800  0.62480500
   0.37615700  0.37502200  0.62480500
   0.87615700  0.37502200  0.62480500
   0.37615700  0.87502200  0.62480500
   0.87615700  0.87502200  0.62480500
   0.37497800  0.12384300  0.37480500
   0.87497800  0.12384300  0.37480500
   0.37497800  0.62384300  0.37480500
   0.87497800  0.62384300  0.37480500
   0.12502200  0.37615700  0.37480500
   0.62502200  0.37615700  0.37480500
   0.12502200  0.87615700  0.37480500
   0.62502200  0.87615700  0.37480500
   0.00000000  0.00000000  0.50016600
   0.50000000  0.00000000  0.50016600
   0.00000000  0.50000000  0.50016600
   0.50000000  0.50000000  0.50016600
   0.25000000  0.00000000  0.25016600
   0.75000000  0.00000000  0.25016600
   0.25000000  0.50000000  0.25016600
   0.75000000  0.50000000  0.25016600
   0.25000000  0.25000000  0.00016600
   0.75000000  0.25000000  0.00016600
   0.25000000  0.75000000  0.00016600
   0.75000000  0.75000000  0.00016600
   0.00000000  0.25000000  0.75016600
   0.50000000  0.25000000  0.75016600
   0.00000000  0.75000000  0.75016600
   0.50000000  0.75000000  0.75016600
   0.00000000  0.00000000  0.00022300
   0.50000000  0.00000000  0.00022300
   0.00000000  0.50000000  0.00022300
   0.50000000  0.50000000  0.00022300
   0.25000000  0.00000000  0.75022300
   0.75000000  0.00000000  0.75022300
   0.25000000  0.50000000  0.75022300
   0.75000000  0.50000000  0.75022300
   0.25000000  0.25000000  0.50022300
   0.75000000  0.25000000  0.50022300
   0.25000000  0.75000000  0.50022300
   0.75000000  0.75000000  0.50022300
   0.00000000  0.25000000  0.25022300
   0.50000000  0.25000000  0.25022300
   0.00000000  0.75000000  0.25022300
   0.50000000  0.75000000  0.25022300
 
 position of ions in cartesian coordinates  (Angst):
   1.32884954  1.31693567  1.29945106
   6.58641704  1.32610067  1.29945106
   1.33801454  6.57450317  1.29945106
   6.59558204  6.58366817  1.29945106
   3.93788296  3.94979683  1.29945106
   9.19545046  3.95896183  1.29945106
   3.94704796  9.20736433  1.29945106
   9.20461546  9.21652933  1.29945106
   1.32101308  3.93330046  9.10833931
   6.57858058  3.94246546  9.10833931
   1.33017808  9.19086796  9.10833931
   6.58774558  9.20003296  9.10833931
   3.94571942  1.33343204  9.10833931
   9.20328692  1.34259704  9.10833931
   3.95488442  6.59099954  9.10833931
   9.21245192  6.60016454  9.10833931
   1.30451671  1.31643058  6.50537656
   6.56208421  1.32559558  6.50537656
   1.31368171  6.57399808  6.50537656
   6.57124921  6.58316308  6.50537656
   3.96221579  3.95030192  6.50537656
   9.21978329  3.95946692  6.50537656
   3.97138079  9.20786942  6.50537656
   9.22894829  9.21703442  6.50537656
   3.94521433  1.30909921  3.90241381
   9.20278183  1.31826421  3.90241381
   3.95437933  6.56666671  3.90241381
   9.21194683  6.57583171  3.90241381
   1.32151817  3.95763329  3.90241381
   6.57908567  3.96679829  3.90241381
   1.33068317  9.21520079  3.90241381
   6.58825067  9.22436579  3.90241381
   0.00000000  0.00000000  5.20765387
   5.25756750  0.00916500  5.20765387
   0.00916500  5.25756750  5.20765387
   5.26673250  5.26673250  5.20765387
   2.62878375  0.00458250  2.60469112
   7.88635125  0.01374750  2.60469112
   2.63794875  5.26215000  2.60469112
   7.89551625  5.27131500  2.60469112
   2.63336625  2.63336625  0.00172837
   7.89093375  2.64253125  0.00172837
   2.64253125  7.89093375  0.00172837
   7.90009875  7.90009875  0.00172837
   0.00458250  2.62878375  7.81061662
   5.26215000  2.63794875  7.81061662
   0.01374750  7.88635125  7.81061662
   5.27131500  7.89551625  7.81061662
   0.00000000  0.00000000  0.00232184
   5.25756750  0.00916500  0.00232184
   0.00916500  5.25756750  0.00232184
   5.26673250  5.26673250  0.00232184
   2.62878375  0.00458250  7.81121009
   7.88635125  0.01374750  7.81121009
   2.63794875  5.26215000  7.81121009
   7.89551625  5.27131500  7.81121009
   2.63336625  2.63336625  5.20824734
   7.89093375  2.64253125  5.20824734
   2.64253125  7.89093375  5.20824734
   7.90009875  7.90009875  5.20824734
   0.00458250  2.62878375  2.60528459
   5.26215000  2.63794875  2.60528459
   0.01374750  7.88635125  2.60528459
   5.27131500  7.89551625  2.60528459
 


--------------------------------------------------------------------------------------------------------


 k-point  1 :   0.0000 0.0000 0.0000  plane waves:   48401
 k-point  2 :   0.5000 0.0000 0.0000  plane waves:   48448
 k-point  3 :   0.5000 0.5000 0.0000  plane waves:   48404
 k-point  4 :   0.0000 0.0000 0.5000  plane waves:   48464
 k-point  5 :   0.5000 0.0000 0.5000  plane waves:   48384
 k-point  6 :   0.5000 0.5000 0.5000  plane waves:   48384

 maximum and minimum number of plane-waves per node :     48464    48384

 maximum number of plane-waves:     48464
 maximum index in each direction: 
   IXMAX=   22   IYMAX=   22   IZMAX=   22
   IXMIN=  -23   IYMIN=  -23   IZMIN=  -22


 serial   3D FFT for wavefunctions
 parallel 3D FFT for charge:
    minimum data exchange during FFTs selected (reduces bandwidth)


 total amount of memory used by VASP MPI-rank0   301249. kBytes
=======================================================================

   base      :      30000. kBytes
   nonl-proj :     175882. kBytes
   fftplans  :       4588. kBytes
   grid      :      69719. kBytes
   one-center:       1990. kBytes
   wavefun   :      19070. kBytes
 
     INWAV:  cpu time   11.5739: real time   11.7510
 Broyden mixing: mesh for mixing (old mesh)
   NGX = 45   NGY = 45   NGZ = 45
  (NGX  =192   NGY  =192   NGZ  =180)
  gives a total of  91125 points

 initial charge density was supplied:
 number of electron     688.0000437 magnetization      -0.0000000
 keeping initial charge density in first step


--------------------------------------------------------------------------------------------------------


 Maximum index for augmentation-charges          899 (set IRDMAX)


--------------------------------------------------------------------------------------------------------


 First call to EWALD:  gamma=   0.169
 Maximum number of real-space cells 3x 3x 3
 Maximum number of reciprocal cells 3x 3x 3

    FEWALD:  cpu time    0.0027: real time    0.0027


--------------------------------------- Iteration      1(   1)  ---------------------------------------


    POTLOK:  cpu time    0.3639: real time    0.3935
    SETDIJ:  cpu time    0.0148: real time    0.0149
     EDDAV:  cpu time  142.6292: real time  143.6596
 BZINTS: Fermi energy:  4.986326;688.000000 electrons
         Band energy:***********;  BLOECHL correction:  0.000000
       DOS:  cpu time    0.0035: real time    0.0035
    CHARGE:  cpu time    1.1800: real time    1.1881
    MIXING:  cpu time    0.0074: real time    0.0075
    --------------------------------------------
      LOOP:  cpu time  144.1987: real time  145.2671

 eigenvalue-minimisations  : 18944
 total energy-change (2. order) :-0.3052636E+03  (-0.1333746E+03)
 number of electron     688.0000439 magnetization       0.0000000
 augmentation part      282.9123323 magnetization       0.0000000

 Broyden mixing:
  rms(total) = 0.31053E+01    rms(broyden)= 0.31053E+01
  rms(prec ) = 0.31060E+01
  weight for this iteration     100.00

 Free energy of the ion-electron system (eV)
  ---------------------------------------------------
  alpha Z        PSCENC =      2355.03466117
  Ewald energy   TEWEN  =    -62457.32079784
  -Hartree energ DENC   =    -42960.12283525
  -exchange      EXHF   =         0.00000000
  -V(xc)+E(xc)   XCENC  =      3286.48631073
  PAW double counting   =    112273.51761527  -115967.53704212
  entropy T*S    EENTRO =         0.00000000
  eigenvalues    EBANDS =    -10855.38665212
  atomic energy  EATOM  =    114020.06510763
  Solvation  Ediel_sol  =         0.00000000
  ---------------------------------------------------
  free energy    TOTEN  =      -305.26363254 eV

  energy without entropy =     -305.26363254  energy(sigma->0) =     -305.26363254


--------------------------------------------------------------------------------------------------------




--------------------------------------- Iteration      1(   2)  ---------------------------------------


    POTLOK:  cpu time    0.1440: real time    0.1469
    SETDIJ:  cpu time    0.0132: real time    0.0132
     EDDAV:  cpu time   66.4719: real time   66.9680
 BZINTS: Fermi energy:  4.946178;688.000000 electrons
         Band energy:***********;  BLOECHL correction:  0.000000
       DOS:  cpu time    0.0034: real time    0.0034
    CHARGE:  cpu time    1.4966: real time    1.5061
    MIXING:  cpu time    0.0031: real time    0.0134
    --------------------------------------------
      LOOP:  cpu time   68.1322: real time   68.6511

 eigenvalue-minimisations  : 12288
 total energy-change (2. order) :-0.2257266E+02  (-0.2260463E+02)
 number of electron     688.0000437 magnetization       0.0000000
 augmentation part      281.7142775 magnetization       0.0000000

 Broyden mixing:
  rms(total) = 0.12640E+01    rms(broyden)= 0.12640E+01
  rms(prec ) = 0.12700E+01
  weight for this iteration     100.00

 eigenvalues of (default mixing * dielectric matrix)
  average eigenvalue GAMMA=   0.7020
  0.7020

 Free energy of the ion-electron system (eV)
  ---------------------------------------------------
  alpha Z        PSCENC =      2355.03466117
  Ewald energy   TEWEN  =    -62457.32079784
  -Hartree energ DENC   =    -42974.93111250
  -exchange      EXHF   =         0.00000000
  -V(xc)+E(xc)   XCENC  =      3287.11121931
  PAW double counting   =    114933.40996076  -118640.07992431
  entropy T*S    EENTRO =         0.00000000
  eigenvalues    EBANDS =    -10851.12540479
  atomic energy  EATOM  =    114020.06510763
  Solvation  Ediel_sol  =         0.00000000
  ---------------------------------------------------
  free energy    TOTEN  =      -327.83629058 eV

  energy without entropy =     -327.83629058  energy(sigma->0) =     -327.83629058


--------------------------------------------------------------------------------------------------------




--------------------------------------- Iteration      1(   3)  ---------------------------------------


    POTLOK:  cpu time    0.1549: real time    0.1561
    SETDIJ:  cpu time    0.0148: real time    0.0149
     EDDAV:  cpu time  141.0712: real time  141.9929
 BZINTS: Fermi energy:  4.847438;688.000000 electrons
         Band energy:***********;  BLOECHL correction:  0.000000
       DOS:  cpu time    0.0027: real time    0.0027
    CHARGE:  cpu time    1.2067: real time    1.2150
    MIXING:  cpu time    0.0019: real time    0.0039
    --------------------------------------------
      LOOP:  cpu time  142.4524: real time  143.3855

 eigenvalue-minimisations  : 19200
 total energy-change (2. order) :-0.2835286E+00  (-0.3488069E+00)
 number of electron     688.0000437 magnetization       0.0000000
 augmentation part      282.2736214 magnetization       0.0000000

 Broyden mixing:
  rms(total) = 0.92651E+00    rms(broyden)= 0.92651E+00
  rms(prec ) = 0.93044E+00
  weight for this iteration     100.00

 eigenvalues of (default mixing * dielectric matrix)
  average eigenvalue GAMMA=   0.5189
  0.5189  0.5189

 Free energy of the ion-electron system (eV)
  ---------------------------------------------------
  alpha Z        PSCENC =      2355.03466117
  Ewald energy   TEWEN  =    -62457.32079784
  -Hartree energ DENC   =    -42947.94825835
  -exchange      EXHF   =         0.00000000
  -V(xc)+E(xc)   XCENC  =      3286.47090942
  PAW double counting   =    114204.42168131  -117904.18270600
  entropy T*S    EENTRO =         0.00000000
  eigenvalues    EBANDS =    -10884.66041652
  atomic energy  EATOM  =    114020.06510763
  Solvation  Ediel_sol  =         0.00000000
  ---------------------------------------------------
  free energy    TOTEN  =      -328.11981918 eV

  energy without entropy =     -328.11981918  energy(sigma->0) =     -328.11981918


--------------------------------------------------------------------------------------------------------




--------------------------------------- Iteration      1(   4)  ---------------------------------------


    POTLOK:  cpu time    0.1471: real time    0.1481
    SETDIJ:  cpu time    0.0130: real time    0.0130
     EDDAV:  cpu time   79.7125: real time   80.2893
 BZINTS: Fermi energy:  4.838903;688.000000 electrons
         Band energy:***********;  BLOECHL correction:  0.000000
       DOS:  cpu time    0.0027: real time    0.0028
    CHARGE:  cpu time    1.1802: real time    1.1881
    MIXING:  cpu time    0.0018: real time    0.0032
    --------------------------------------------
      LOOP:  cpu time   81.0572: real time   81.6444

 eigenvalue-minimisations  : 13568
 total energy-change (2. order) :-0.4197187E-02  (-0.1888228E-01)
 number of electron     688.0000437 magnetization      -0.0000000
 augmentation part      282.1747146 magnetization      -0.0000000

 Broyden mixing:
  rms(total) = 0.80024E+00    rms(broyden)= 0.80024E+00
  rms(prec ) = 0.80065E+00
  weight for this iteration     100.00

 eigenvalues of (default mixing * dielectric matrix)
  average eigenvalue GAMMA=   0.5402
  0.6305  0.6305  0.3596

 Free energy of the ion-electron system (eV)
  ---------------------------------------------------
  alpha Z        PSCENC =      2355.03466117
  Ewald energy   TEWEN  =    -62457.32079784
  -Hartree energ DENC   =    -42951.24014811
  -exchange      EXHF   =         0.00000000
  -V(xc)+E(xc)   XCENC  =      3286.36984089
  PAW double counting   =    113968.25990419  -117668.28208988
  entropy T*S    EENTRO =         0.00000000
  eigenvalues    EBANDS =    -10881.01049440
  atomic energy  EATOM  =    114020.06510763
  Solvation  Ediel_sol  =         0.00000000
  ---------------------------------------------------
  free energy    TOTEN  =      -328.12401636 eV

  energy without entropy =     -328.12401636  energy(sigma->0) =     -328.12401636


--------------------------------------------------------------------------------------------------------




--------------------------------------- Iteration      1(   5)  ---------------------------------------


    POTLOK:  cpu time    0.1457: real time    0.1468
    SETDIJ:  cpu time    0.0133: real time    0.0134
     EDDAV:  cpu time  116.8524: real time  117.6379
 BZINTS: Fermi energy:  4.841749;688.000000 electrons
         Band energy:***********;  BLOECHL correction:  0.000000
       DOS:  cpu time    0.0027: real time    0.0028
    CHARGE:  cpu time    1.1777: real time    1.1855
    MIXING:  cpu time    0.0017: real time    0.0017
    --------------------------------------------
      LOOP:  cpu time  118.1937: real time  118.9881

 eigenvalue-minimisations  : 16896
 total energy-change (2. order) :-0.2308761E-03  (-0.1507969E-02)
 number of electron     688.0000437 magnetization      -0.0000000
 augmentation part      282.1472735 magnetization      -0.0000000

 Broyden mixing:
  rms(total) = 0.69601E+00    rms(broyden)= 0.69601E+00
  rms(prec ) = 0.69618E+00
  weight for this iteration     100.00

 eigenvalues of (default mixing * dielectric matrix)
  average eigenvalue GAMMA=   0.4365
  0.6405  0.6405  0.3558  0.1093

 Free energy of the ion-electron system (eV)
  ---------------------------------------------------
  alpha Z        PSCENC =      2355.03466117
  Ewald energy   TEWEN  =    -62457.32079784
  -Hartree energ DENC   =    -42955.75644966
  -exchange      EXHF   =         0.00000000
  -V(xc)+E(xc)   XCENC  =      3286.48260317
  PAW double counting   =    113731.40441038  -117430.89735522
  entropy T*S    EENTRO =         0.00000000
  eigenvalues    EBANDS =    -10877.13642687
  atomic energy  EATOM  =    114020.06510763
  Solvation  Ediel_sol  =         0.00000000
  ---------------------------------------------------
  free energy    TOTEN  =      -328.12424724 eV

  energy without entropy =     -328.12424724  energy(sigma->0) =     -328.12424724


--------------------------------------------------------------------------------------------------------




--------------------------------------- Iteration      1(   6)  ---------------------------------------


    POTLOK:  cpu time    0.1419: real time    0.1466
    SETDIJ:  cpu time    0.0134: real time    0.0135
     EDDAV:  cpu time  104.3460: real time  105.0501
 BZINTS: Fermi energy:  4.841255;688.000000 electrons
         Band energy:***********;  BLOECHL correction:  0.000000
       DOS:  cpu time    0.0028: real time    0.0028
    CHARGE:  cpu time    1.1801: real time    1.1878
    MIXING:  cpu time    0.0017: real time    0.0017
    --------------------------------------------
      LOOP:  cpu time  105.6858: real time  106.4024

 eigenvalue-minimisations  : 15360
 total energy-change (2. order) : 0.2353702E-03  (-0.5804410E-04)
 number of electron     688.0000437 magnetization       0.0000000
 augmentation part      282.1463471 magnetization       0.0000000

 Broyden mixing:
  rms(total) = 0.64297E+00    rms(broyden)= 0.64297E+00
  rms(prec ) = 0.64313E+00
  weight for this iteration     100.00

 eigenvalues of (default mixing * dielectric matrix)
  average eigenvalue GAMMA=   0.5838
  0.7821  0.7821  0.5078  0.5078  0.3391

 Free energy of the ion-electron system (eV)
  ---------------------------------------------------
  alpha Z        PSCENC =      2355.03466117
  Ewald energy   TEWEN  =    -62457.32079784
  -Hartree energ DENC   =    -42956.21331957
  -exchange      EXHF   =         0.00000000
  -V(xc)+E(xc)   XCENC  =      3286.47708510
  PAW double counting   =    113613.74081916  -117312.76032886
  entropy T*S    EENTRO =         0.00000000
  eigenvalues    EBANDS =    -10877.14723864
  atomic energy  EATOM  =    114020.06510763
  Solvation  Ediel_sol  =         0.00000000
  ---------------------------------------------------
  free energy    TOTEN  =      -328.12401187 eV

  energy without entropy =     -328.12401187  energy(sigma->0) =     -328.12401187


--------------------------------------------------------------------------------------------------------




--------------------------------------- Iteration      1(   7)  ---------------------------------------


    POTLOK:  cpu time    0.1437: real time    0.1470
    SETDIJ:  cpu time    0.0132: real time    0.0133
     EDDAV:  cpu time  120.6672: real time  121.4537
 BZINTS: Fermi energy:  4.840950;688.000000 electrons
         Band energy:***********;  BLOECHL correction:  0.000000
       DOS:  cpu time    0.0028: real time    0.0028
    CHARGE:  cpu time    1.1778: real time    1.1855
    MIXING:  cpu time    0.0019: real time    0.0019
    --------------------------------------------
      LOOP:  cpu time  122.0065: real time  122.8041

 eigenvalue-minimisations  : 16896
 total energy-change (2. order) : 0.7576413E-03  (-0.5417225E-04)
 number of electron     688.0000437 magnetization       0.0000000
 augmentation part      282.1730586 magnetization       0.0000000

 Broyden mixing:
  rms(total) = 0.49382E+00    rms(broyden)= 0.49382E+00
  rms(prec ) = 0.49392E+00
  weight for this iteration     100.00

 eigenvalues of (default mixing * dielectric matrix)
  average eigenvalue GAMMA=   0.7241
  1.1920  1.1920  0.5801  0.5801  0.4624  0.3379

 Free energy of the ion-electron system (eV)
  ---------------------------------------------------
  alpha Z        PSCENC =      2355.03466117
  Ewald energy   TEWEN  =    -62457.32079784
  -Hartree energ DENC   =    -42956.88271277
  -exchange      EXHF   =         0.00000000
  -V(xc)+E(xc)   XCENC  =      3286.46614518
  PAW double counting   =    113282.01600165  -116979.66138530
  entropy T*S    EENTRO =         0.00000000
  eigenvalues    EBANDS =    -10877.84027394
  atomic energy  EATOM  =    114020.06510763
  Solvation  Ediel_sol  =         0.00000000
  ---------------------------------------------------
  free energy    TOTEN  =      -328.12325423 eV

  energy without entropy =     -328.12325423  energy(sigma->0) =     -328.12325423


--------------------------------------------------------------------------------------------------------




--------------------------------------- Iteration      1(   8)  ---------------------------------------


    POTLOK:  cpu time    0.1446: real time    0.1461
    SETDIJ:  cpu time    0.0132: real time    0.0132
     EDDAV:  cpu time   74.1759: real time   74.7149
 BZINTS: Fermi energy:  4.840846;688.000000 electrons
         Band energy:***********;  BLOECHL correction:  0.000000
       DOS:  cpu time    0.0028: real time    0.0028
    CHARGE:  cpu time    1.1814: real time    1.1886
    MIXING:  cpu time    0.0018: real time    0.0018
    --------------------------------------------
      LOOP:  cpu time   75.5197: real time   76.0675

 eigenvalue-minimisations  : 12800
 total energy-change (2. order) : 0.4383626E-03  (-0.4310138E-04)
 number of electron     688.0000437 magnetization       0.0000000
 augmentation part      282.1850170 magnetization       0.0000000

 Broyden mixing:
  rms(total) = 0.30760E+00    rms(broyden)= 0.30760E+00
  rms(prec ) = 0.30770E+00
  weight for this iteration     100.00

 eigenvalues of (default mixing * dielectric matrix)
  average eigenvalue GAMMA=   0.7399
  1.3248  1.3248  0.6420  0.6420  0.4572  0.4572  0.3313

 Free energy of the ion-electron system (eV)
  ---------------------------------------------------
  alpha Z        PSCENC =      2355.03466117
  Ewald energy   TEWEN  =    -62457.32079784
  -Hartree energ DENC   =    -42958.58230702
  -exchange      EXHF   =         0.00000000
  -V(xc)+E(xc)   XCENC  =      3286.47616632
  PAW double counting   =    112880.20124927  -116576.31698387
  entropy T*S    EENTRO =         0.00000000
  eigenvalues    EBANDS =    -10877.67991152
  atomic energy  EATOM  =    114020.06510763
  Solvation  Ediel_sol  =         0.00000000
  ---------------------------------------------------
  free energy    TOTEN  =      -328.12281587 eV

  energy without entropy =     -328.12281587  energy(sigma->0) =     -328.12281587


--------------------------------------------------------------------------------------------------------




--------------------------------------- Iteration      1(   9)  ---------------------------------------


    POTLOK:  cpu time    0.1445: real time    0.1483
    SETDIJ:  cpu time    0.0131: real time    0.0132
     EDDAV:  cpu time  130.8826: real time  131.7327
 BZINTS: Fermi energy:  4.840857;688.000000 electrons
         Band energy:***********;  BLOECHL correction:  0.000000
       DOS:  cpu time    0.0028: real time    0.0028
    CHARGE:  cpu time    1.1760: real time    1.1841
    MIXING:  cpu time    0.0020: real time    0.0020
    --------------------------------------------
      LOOP:  cpu time  132.2209: real time  133.0830

 eigenvalue-minimisations  : 17408
 total energy-change (2. order) : 0.1266727E-03  (-0.8353281E-05)
 number of electron     688.0000437 magnetization       0.0000000
 augmentation part      282.1932314 magnetization       0.0000000

 Broyden mixing:
  rms(total) = 0.24344E+00    rms(broyden)= 0.24344E+00
  rms(prec ) = 0.24352E+00
  weight for this iteration     100.00

 eigenvalues of (default mixing * dielectric matrix)
  average eigenvalue GAMMA=   0.7567
  1.4472  1.4472  0.7075  0.7075  0.4895  0.4895  0.4294  0.3360

 Free energy of the ion-electron system (eV)
  ---------------------------------------------------
  alpha Z        PSCENC =      2355.03466117
  Ewald energy   TEWEN  =    -62457.32079784
  -Hartree energ DENC   =    -42958.92248002
  -exchange      EXHF   =         0.00000000
  -V(xc)+E(xc)   XCENC  =      3286.47946718
  PAW double counting   =    112751.48231651  -116447.11582427
  entropy T*S    EENTRO =         0.00000000
  eigenvalues    EBANDS =    -10877.82513954
  atomic energy  EATOM  =    114020.06510763
  Solvation  Ediel_sol  =         0.00000000
  ---------------------------------------------------
  free energy    TOTEN  =      -328.12268919 eV

  energy without entropy =     -328.12268919  energy(sigma->0) =     -328.12268919


--------------------------------------------------------------------------------------------------------




--------------------------------------- Iteration      1(  10)  ---------------------------------------


    POTLOK:  cpu time    0.1452: real time    0.1464
    SETDIJ:  cpu time    0.0132: real time    0.0132
     EDDAV:  cpu time   86.7278: real time   87.3309
 BZINTS: Fermi energy:  4.840858;688.000000 electrons
         Band energy:***********;  BLOECHL correction:  0.000000
       DOS:  cpu time    0.0028: real time    0.0028
    CHARGE:  cpu time    1.3711: real time    1.3797
    MIXING:  cpu time    0.0023: real time    0.0023
    --------------------------------------------
      LOOP:  cpu time   88.2624: real time   88.8752

 eigenvalue-minimisations  : 13824
 total energy-change (2. order) : 0.1571454E-03  (-0.1955189E-04)
 number of electron     688.0000437 magnetization       0.0000000
 augmentation part      282.2084870 magnetization       0.0000000

 Broyden mixing:
  rms(total) = 0.11473E+00    rms(broyden)= 0.11473E+00
  rms(prec ) = 0.11477E+00
  weight for this iteration     100.00

 eigenvalues of (default mixing * dielectric matrix)
  average eigenvalue GAMMA=   0.8588
  1.7211  1.7211  0.8964  0.8964  0.5901  0.5901  0.4901  0.4901  0.3335

 Free energy of the ion-electron system (eV)
  ---------------------------------------------------
  alpha Z        PSCENC =      2355.03466117
  Ewald energy   TEWEN  =    -62457.32079784
  -Hartree energ DENC   =    -42959.59216808
  -exchange      EXHF   =         0.00000000
  -V(xc)+E(xc)   XCENC  =      3286.48277977
  PAW double counting   =    112494.51814659  -116189.21696216
  entropy T*S    EENTRO =         0.00000000
  eigenvalues    EBANDS =    -10878.09329913
  atomic energy  EATOM  =    114020.06510763
  Solvation  Ediel_sol  =         0.00000000
  ---------------------------------------------------
  free energy    TOTEN  =      -328.12253205 eV

  energy without entropy =     -328.12253205  energy(sigma->0) =     -328.12253205


--------------------------------------------------------------------------------------------------------




--------------------------------------- Iteration      1(  11)  ---------------------------------------


    POTLOK:  cpu time    0.1539: real time    0.1589
    SETDIJ:  cpu time    0.0138: real time    0.0139
     EDDAV:  cpu time  141.3350: real time  142.2471
 BZINTS: Fermi energy:  4.840862;688.000000 electrons
         Band energy:***********;  BLOECHL correction:  0.000000
       DOS:  cpu time    0.0027: real time    0.0028
    CHARGE:  cpu time    1.1767: real time    1.1845
    MIXING:  cpu time    0.0020: real time    0.0020
    --------------------------------------------
      LOOP:  cpu time  142.6841: real time  143.6091

 eigenvalue-minimisations  : 18944
 total energy-change (2. order) : 0.2749363E-04  (-0.3005469E-05)
 number of electron     688.0000437 magnetization      -0.0000000
 augmentation part      282.2138345 magnetization      -0.0000000

 Broyden mixing:
  rms(total) = 0.65469E-01    rms(broyden)= 0.65469E-01
  rms(prec ) = 0.65490E-01
  weight for this iteration     100.00

 eigenvalues of (default mixing * dielectric matrix)
  average eigenvalue GAMMA=   0.8892
  1.9405  1.9405  0.9646  0.9646  0.6350  0.6350  0.5036  0.5036  0.3341  0.4710

 Free energy of the ion-electron system (eV)
  ---------------------------------------------------
  alpha Z        PSCENC =      2355.03466117
  Ewald energy   TEWEN  =    -62457.32079784
  -Hartree energ DENC   =    -42959.80967759
  -exchange      EXHF   =         0.00000000
  -V(xc)+E(xc)   XCENC  =      3286.48467483
  PAW double counting   =    112400.79578786  -116095.20334451
  entropy T*S    EENTRO =         0.00000000
  eigenvalues    EBANDS =    -10878.16891609
  atomic energy  EATOM  =    114020.06510763
  Solvation  Ediel_sol  =         0.00000000
  ---------------------------------------------------
  free energy    TOTEN  =      -328.12250455 eV

  energy without entropy =     -328.12250455  energy(sigma->0) =     -328.12250455


--------------------------------------------------------------------------------------------------------




--------------------------------------- Iteration      1(  12)  ---------------------------------------


    POTLOK:  cpu time    0.1448: real time    0.1479
    SETDIJ:  cpu time    0.0131: real time    0.0132
     EDDAV:  cpu time   92.1530: real time   92.7900
 BZINTS: Fermi energy:  4.840914;688.000000 electrons
         Band energy:***********;  BLOECHL correction:  0.000000
       DOS:  cpu time    0.0027: real time    0.0027
    CHARGE:  cpu time    1.1772: real time    1.1851
    MIXING:  cpu time    0.0024: real time    0.0165
    --------------------------------------------
      LOOP:  cpu time   93.4933: real time   94.1554

 eigenvalue-minimisations  : 14336
 total energy-change (2. order) : 0.1416363E-04  (-0.1194221E-05)
 number of electron     688.0000437 magnetization      -0.0000000
 augmentation part      282.2163828 magnetization      -0.0000000

 Broyden mixing:
  rms(total) = 0.28803E-01    rms(broyden)= 0.28803E-01
  rms(prec ) = 0.28813E-01
  weight for this iteration     100.00

 eigenvalues of (default mixing * dielectric matrix)
  average eigenvalue GAMMA=   0.9388
  2.1983  2.1983  1.0699  1.0699  0.7124  0.7124  0.5371  0.5371  0.3338  0.4785
  0.4785

 Free energy of the ion-electron system (eV)
  ---------------------------------------------------
  alpha Z        PSCENC =      2355.03466117
  Ewald energy   TEWEN  =    -62457.32079784
  -Hartree energ DENC   =    -42960.00100044
  -exchange      EXHF   =         0.00000000
  -V(xc)+E(xc)   XCENC  =      3286.48822902
  PAW double counting   =    112332.74234534  -116026.95793102
  entropy T*S    EENTRO =         0.00000000
  eigenvalues    EBANDS =    -10878.17310423
  atomic energy  EATOM  =    114020.06510763
  Solvation  Ediel_sol  =         0.00000000
  ---------------------------------------------------
  free energy    TOTEN  =      -328.12249039 eV

  energy without entropy =     -328.12249039  energy(sigma->0) =     -328.12249039


--------------------------------------------------------------------------------------------------------




--------------------------------------- Iteration      1(  13)  ---------------------------------------


    POTLOK:  cpu time    0.1460: real time    0.1471
    SETDIJ:  cpu time    0.0130: real time    0.0131
     EDDAV:  cpu time  119.9262: real time  120.7112
 BZINTS: Fermi energy:  4.840916;688.000000 electrons
         Band energy:***********;  BLOECHL correction:  0.000000
       DOS:  cpu time    0.0027: real time    0.0028
    CHARGE:  cpu time    1.1775: real time    1.1855
    MIXING:  cpu time    0.0021: real time    0.0021
    --------------------------------------------
      LOOP:  cpu time  121.2677: real time  122.0617

 eigenvalue-minimisations  : 16640
 total energy-change (2. order) : 0.5852111E-05  (-0.5510704E-06)
 number of electron     688.0000437 magnetization       0.0000000
 augmentation part      282.2188183 magnetization       0.0000000

 Broyden mixing:
  rms(total) = 0.75247E-02    rms(broyden)= 0.75247E-02
  rms(prec ) = 0.75298E-02
  weight for this iteration     100.00

 eigenvalues of (default mixing * dielectric matrix)
  average eigenvalue GAMMA=   1.1462
  3.0463  3.0463  1.3642  1.3642  0.8718  0.8718  0.3339  0.6206  0.6206  0.5409
  0.5409  0.5327

 Free energy of the ion-electron system (eV)
  ---------------------------------------------------
  alpha Z        PSCENC =      2355.03466117
  Ewald energy   TEWEN  =    -62457.32079784
  -Hartree energ DENC   =    -42960.12122929
  -exchange      EXHF   =         0.00000000
  -V(xc)+E(xc)   XCENC  =      3286.48876431
  PAW double counting   =    112289.17136732  -115983.23581294
  entropy T*S    EENTRO =         0.00000000
  eigenvalues    EBANDS =    -10878.20454488
  atomic energy  EATOM  =    114020.06510763
  Solvation  Ediel_sol  =         0.00000000
  ---------------------------------------------------
  free energy    TOTEN  =      -328.12248454 eV

  energy without entropy =     -328.12248454  energy(sigma->0) =     -328.12248454


--------------------------------------------------------------------------------------------------------




--------------------------------------- Iteration      1(  14)  ---------------------------------------


    POTLOK:  cpu time    0.1443: real time    0.1474
    SETDIJ:  cpu time    0.0131: real time    0.0131
     EDDAV:  cpu time  121.1497: real time  121.9530
 BZINTS: Fermi energy:  4.840918;688.000000 electrons
         Band energy:***********;  BLOECHL correction:  0.000000
       DOS:  cpu time    0.0028: real time    0.0028
    CHARGE:  cpu time    1.1783: real time    1.1860
    MIXING:  cpu time    0.0026: real time    0.0026
    --------------------------------------------
      LOOP:  cpu time  122.4907: real time  123.3049

 eigenvalue-minimisations  : 17408
 total energy-change (2. order) : 0.1203109E-05  (-0.1183754E-06)
 number of electron     688.0000437 magnetization       0.0000000
 augmentation part      282.2199273 magnetization       0.0000000

 Broyden mixing:
  rms(total) = 0.84579E-03    rms(broyden)= 0.84578E-03
  rms(prec ) = 0.84656E-03
  weight for this iteration     100.00

 eigenvalues of (default mixing * dielectric matrix)
  average eigenvalue GAMMA=   1.2138
  3.3820  3.3820  1.5306  1.5306  0.9745  0.9745  0.7049  0.7049  0.3339  0.5702
  0.5702  0.5603  0.5603

 Free energy of the ion-electron system (eV)
  ---------------------------------------------------
  alpha Z        PSCENC =      2355.03466117
  Ewald energy   TEWEN  =    -62457.32079784
  -Hartree energ DENC   =    -42960.15149133
  -exchange      EXHF   =         0.00000000
  -V(xc)+E(xc)   XCENC  =      3286.48862554
  PAW double counting   =    112274.83490715  -115968.85141035
  entropy T*S    EENTRO =         0.00000000
  eigenvalues    EBANDS =    -10878.22208530
  atomic energy  EATOM  =    114020.06510763
  Solvation  Ediel_sol  =         0.00000000
  ---------------------------------------------------
  free energy    TOTEN  =      -328.12248334 eV

  energy without entropy =     -328.12248334  energy(sigma->0) =     -328.12248334


--------------------------------------------------------------------------------------------------------




--------------------------------------- Iteration      1(  15)  ---------------------------------------


    POTLOK:  cpu time    0.1426: real time    0.1474
    SETDIJ:  cpu time    0.0131: real time    0.0132
     EDDAV:  cpu time  113.6027: real time  114.3541
 BZINTS: Fermi energy:  4.840919;688.000000 electrons
         Band energy:***********;  BLOECHL correction:  0.000000
       DOS:  cpu time    0.0028: real time    0.0028
    CHARGE:  cpu time    1.1800: real time    1.1882
    MIXING:  cpu time    0.0023: real time    0.0023
    --------------------------------------------
      LOOP:  cpu time  114.9435: real time  115.7079

 eigenvalue-minimisations  : 15872
 total energy-change (2. order) : 0.1439330E-06  (-0.8706661E-08)
 number of electron     688.0000437 magnetization       0.0000000
 augmentation part      282.2201228 magnetization       0.0000000

 Broyden mixing:
  rms(total) = 0.28904E-03    rms(broyden)= 0.28904E-03
  rms(prec ) = 0.29203E-03
  weight for this iteration     100.00

 eigenvalues of (default mixing * dielectric matrix)
  average eigenvalue GAMMA=   1.1835
  3.2129  3.2129  1.6070  1.6070  1.0220  1.0220  0.7814  0.7814  0.3339  0.6210
  0.6210  0.5851  0.5851  0.5764

 Free energy of the ion-electron system (eV)
  ---------------------------------------------------
  alpha Z        PSCENC =      2355.03466117
  Ewald energy   TEWEN  =    -62457.32079784
  -Hartree energ DENC   =    -42960.15501242
  -exchange      EXHF   =         0.00000000
  -V(xc)+E(xc)   XCENC  =      3286.48838538
  PAW double counting   =    112272.32122307  -115966.33218410
  entropy T*S    EENTRO =         0.00000000
  eigenvalues    EBANDS =    -10878.22386608
  atomic energy  EATOM  =    114020.06510763
  Solvation  Ediel_sol  =         0.00000000
  ---------------------------------------------------
  free energy    TOTEN  =      -328.12248319 eV

  energy without entropy =     -328.12248319  energy(sigma->0) =     -328.12248319


--------------------------------------------------------------------------------------------------------




--------------------------------------- Iteration      1(  16)  ---------------------------------------


    POTLOK:  cpu time    0.1452: real time    0.1463
    SETDIJ:  cpu time    0.0130: real time    0.0130
     EDDAV:  cpu time   65.6969: real time   66.1585
 BZINTS: Fermi energy:  4.840917;688.000000 electrons
         Band energy:***********;  BLOECHL correction:  0.000000
       DOS:  cpu time    0.0027: real time    0.0027
    --------------------------------------------
      LOOP:  cpu time   65.8577: real time   66.3205

 eigenvalue-minimisations  :  9728
 total energy-change (2. order) :-0.3085006E-08  (-0.1063073E-08)
 number of electron     688.0000437 magnetization       0.0000000
 augmentation part      282.2201228 magnetization       0.0000000

 Free energy of the ion-electron system (eV)
  ---------------------------------------------------
  alpha Z        PSCENC =      2355.03466117
  Ewald energy   TEWEN  =    -62457.32079784
  -Hartree energ DENC   =    -42960.15302793
  -exchange      EXHF   =         0.00000000
  -V(xc)+E(xc)   XCENC  =      3286.48830355
  PAW double counting   =    112272.89964911  -115966.91259560
  entropy T*S    EENTRO =         0.00000000
  eigenvalues    EBANDS =    -10878.22378327
  atomic energy  EATOM  =    114020.06510763
  Solvation  Ediel_sol  =         0.00000000
  ---------------------------------------------------
  free energy    TOTEN  =      -328.12248319 eV

  energy without entropy =     -328.12248319  energy(sigma->0) =     -328.12248319


--------------------------------------------------------------------------------------------------------




 average (electrostatic) potential at core
  the test charge radii are     0.9698  0.8297  0.9500
  (the norm of the test charge is              1.0000)
       1 -86.6264       2 -86.6264       3 -86.6264       4 -86.6264       5 -86.6264
       6 -86.6264       7 -86.6264       8 -86.6264       9 -86.6264      10 -86.6264
      11 -86.6264      12 -86.6264      13 -86.6264      14 -86.6264      15 -86.6264
      16 -86.6264      17 -86.6264      18 -86.6264      19 -86.6264      20 -86.6264
      21 -86.6264      22 -86.6264      23 -86.6264      24 -86.6264      25 -86.6264
      26 -86.6264      27 -86.6264      28 -86.6264      29 -86.6264      30 -86.6264
      31 -86.6264      32 -86.6264      33 -80.7048      34 -80.7048      35 -80.7048
      36 -80.7048      37 -80.7048      38 -80.7048      39 -80.7048      40 -80.7048
      41 -80.7048      42 -80.7048      43 -80.7048      44 -80.7048      45 -80.7048
      46 -80.7048      47 -80.7048      48 -80.7048      49 -80.2333      50 -80.2333
      51 -80.2333      52 -80.2333      53 -80.2333      54 -80.2333      55 -80.2333
      56 -80.2333      57 -80.2333      58 -80.2333      59 -80.2333      60 -80.2333
      61 -80.2333      62 -80.2333      63 -80.2333      64 -80.2333
 
 
 
 E-fermi :   4.8409     XC(G=0): -10.4639     alpha+bet :-10.5414


 spin component 1

 k-point     1 :       0.0000    0.0000    0.0000
  band No.  band energies     occupation 
      1     -64.3153      1.00000
      2     -64.3153      1.00000
      3     -64.3153      1.00000
      4     -64.3153      1.00000
      5     -64.3153      1.00000
      6     -64.3153      1.00000
      7     -64.3153      1.00000
      8     -64.3153      1.00000
      9     -64.2834      1.00000
     10     -64.2834      1.00000
     11     -64.2833      1.00000
     12     -64.2833      1.00000
     13     -64.2833      1.00000
     14     -64.2833      1.00000
     15     -64.2833      1.00000
     16     -64.2833      1.00000
     17     -64.2828      1.00000
     18     -64.2828      1.00000
     19     -64.2828      1.00000
     20     -64.2828      1.00000
     21     -64.2828      1.00000
     22     -64.2828      1.00000
     23     -64.2828      1.00000
     24     -64.2828      1.00000
     25     -64.2811      1.00000
     26     -64.2811      1.00000
     27     -64.2811      1.00000
     28     -64.2811      1.00000
     29     -64.2811      1.00000
     30     -64.2811      1.00000
     31     -64.2811      1.00000
     32     -64.2811      1.00000
     33     -64.2656      1.00000
     34     -64.2656      1.00000
     35     -64.2656      1.00000
     36     -64.2656      1.00000
     37     -64.2656      1.00000
     38     -64.2656      1.00000
     39     -64.2656      1.00000
     40     -64.2656      1.00000
     41     -64.2642      1.00000
     42     -64.2642      1.00000
     43     -64.2642      1.00000
     44     -64.2642      1.00000
     45     -64.2642      1.00000
     46     -64.2642      1.00000
     47     -64.2642      1.00000
     48     -64.2642      1.00000
     49     -51.8867      1.00000
     50     -51.8867      1.00000
     51     -51.8867      1.00000
[...]
   -.422E+02 0.355E-01 0.108E+01   0.430E+02 -.343E-01 -.109E+01   -.862E+00 -.114E-02 0.106E-01   -.184E-04 -.460E-06 -.444E-06
   -.422E+02 0.355E-01 0.108E+01   0.430E+02 -.343E-01 -.109E+01   -.862E+00 -.114E-02 0.106E-01   -.184E-04 -.460E-06 -.444E-06
   -.422E+02 0.355E-01 0.108E+01   0.430E+02 -.343E-01 -.109E+01   -.862E+00 -.114E-02 0.106E-01   -.184E-04 -.460E-06 -.444E-06
   -.422E+02 0.355E-01 0.108E+01   0.430E+02 -.343E-01 -.109E+01   -.862E+00 -.114E-02 0.106E-01   -.184E-04 -.460E-06 -.444E-06
   0.422E+02 -.355E-01 0.108E+01   -.430E+02 0.343E-01 -.109E+01   0.862E+00 0.114E-02 0.106E-01   0.184E-04 0.460E-06 -.444E-06
   0.422E+02 -.355E-01 0.108E+01   -.430E+02 0.343E-01 -.109E+01   0.862E+00 0.114E-02 0.106E-01   0.184E-04 0.460E-06 -.444E-06
   0.422E+02 -.355E-01 0.108E+01   -.430E+02 0.343E-01 -.109E+01   0.862E+00 0.114E-02 0.106E-01   0.184E-04 0.460E-06 -.444E-06
   0.422E+02 -.355E-01 0.108E+01   -.430E+02 0.343E-01 -.109E+01   0.862E+00 0.114E-02 0.106E-01   0.184E-04 0.460E-06 -.444E-06
   0.355E-01 -.422E+02 0.108E+01   -.343E-01 0.430E+02 -.109E+01   -.114E-02 -.862E+00 0.106E-01   -.460E-06 -.184E-04 -.444E-06
   0.355E-01 -.422E+02 0.108E+01   -.343E-01 0.430E+02 -.109E+01   -.114E-02 -.862E+00 0.106E-01   -.460E-06 -.184E-04 -.444E-06
   0.355E-01 -.422E+02 0.108E+01   -.343E-01 0.430E+02 -.109E+01   -.114E-02 -.862E+00 0.106E-01   -.460E-06 -.184E-04 -.444E-06
   0.355E-01 -.422E+02 0.108E+01   -.343E-01 0.430E+02 -.109E+01   -.114E-02 -.862E+00 0.106E-01   -.460E-06 -.184E-04 -.444E-06
   -.355E-01 0.422E+02 0.108E+01   0.343E-01 -.430E+02 -.109E+01   0.114E-02 0.862E+00 0.106E-01   0.460E-06 0.184E-04 -.444E-06
   -.355E-01 0.422E+02 0.108E+01   0.343E-01 -.430E+02 -.109E+01   0.114E-02 0.862E+00 0.106E-01   0.460E-06 0.184E-04 -.444E-06
   -.355E-01 0.422E+02 0.108E+01   0.343E-01 -.430E+02 -.109E+01   0.114E-02 0.862E+00 0.106E-01   0.460E-06 0.184E-04 -.444E-06
   -.355E-01 0.422E+02 0.108E+01   0.343E-01 -.430E+02 -.109E+01   0.114E-02 0.862E+00 0.106E-01   0.460E-06 0.184E-04 -.444E-06
   -.222E-07 0.154E-07 -.127E+01   0.169E-12 0.163E-12 0.122E+01   0.170E-24 -.271E-24 0.517E-01   -.209E-12 0.718E-12 0.113E-04
   -.222E-07 0.154E-07 -.127E+01   0.172E-12 0.171E-12 0.122E+01   -.531E-24 -.271E-24 0.517E-01   -.229E-12 0.565E-12 0.113E-04
   -.222E-07 0.154E-07 -.127E+01   0.112E-12 0.270E-12 0.122E+01   -.313E-24 -.194E-24 0.517E-01   -.761E-12 -.585E-12 0.113E-04
   -.222E-07 0.154E-07 -.127E+01   0.172E-12 0.256E-12 0.122E+01   0.262E-24 0.517E-25 0.517E-01   0.303E-12 -.341E-12 0.113E-04
   0.154E-07 -.222E-07 -.127E+01   0.568E-13 0.114E-12 0.122E+01   0.178E-24 -.336E-24 0.517E-01   -.124E-12 0.360E-12 0.113E-04
   0.154E-07 -.222E-07 -.127E+01   0.114E-12 0.114E-12 0.122E+01   0.127E-24 0.310E-24 0.517E-01   -.110E-12 0.143E-12 0.113E-04
   0.154E-07 -.222E-07 -.127E+01   0.568E-13 0.853E-13 0.122E+01   0.148E-24 0.155E-24 0.517E-01   -.822E-13 -.215E-12 0.113E-04
   0.154E-07 -.222E-07 -.127E+01   0.853E-13 0.853E-13 0.122E+01   -.417E-25 -.155E-24 0.517E-01   -.735E-13 0.224E-12 0.113E-04
   -.222E-07 0.154E-07 -.127E+01   0.135E-12 0.212E-12 0.122E+01   -.189E-24 0.103E-24 0.517E-01   -.211E-12 0.408E-12 0.113E-04
   -.222E-07 0.154E-07 -.127E+01   0.107E-12 0.198E-12 0.122E+01   -.190E-24 0.258E-25 0.517E-01   -.229E-12 0.361E-12 0.113E-04
   -.222E-07 0.154E-07 -.127E+01   0.142E-12 0.111E-12 0.122E+01   -.101E-24 -.284E-24 0.517E-01   -.188E-12 -.335E-12 0.113E-04
   -.222E-07 0.154E-07 -.127E+01   0.142E-12 0.175E-12 0.122E+01   0.611E-24 -.258E-25 0.517E-01   -.307E-12 -.148E-12 0.113E-04
   0.154E-07 -.222E-07 -.127E+01   0.402E-13 0.258E-13 0.122E+01   -.893E-25 0.155E-24 0.517E-01   0.379E-12 0.570E-12 0.113E-04
   0.154E-07 -.223E-07 -.127E+01   0.427E-13 0.258E-13 0.122E+01   -.639E-25 -.569E-24 0.517E-01   -.546E-12 0.713E-12 0.113E-04
   0.154E-07 -.222E-07 -.127E+01   0.544E-13 0.116E-12 0.122E+01   -.412E-25 -.155E-24 0.517E-01   0.836E-12 -.469E-12 0.113E-04
   0.154E-07 -.222E-07 -.127E+01   0.569E-13 0.237E-14 0.122E+01   0.912E-25 0.414E-24 0.517E-01   -.858E-12 -.621E-12 0.113E-04
   0.274E-08 -.582E-08 -.102E+01   -.210E-12 -.142E-12 0.960E+00   -.169E-25 -.388E-25 0.616E-01   0.250E-12 0.246E-12 -.382E-05
   0.274E-08 -.582E-08 -.102E+01   -.236E-12 -.142E-12 0.960E+00   0.637E-25 -.258E-25 0.616E-01   -.365E-12 0.245E-12 -.382E-05
   0.274E-08 -.582E-08 -.102E+01   -.174E-12 -.124E-12 0.960E+00   0.147E-24 -.646E-26 0.616E-01   0.366E-12 -.392E-12 -.382E-05
   0.274E-08 -.583E-08 -.102E+01   -.200E-12 -.711E-13 0.960E+00   -.938E-25 -.372E-25 0.616E-01   -.471E-12 -.273E-12 -.382E-05
   -.582E-08 0.274E-08 -.102E+01   0.213E-13 -.327E-12 0.960E+00   0.548E-25 0.905E-25 0.616E-01   0.161E-13 0.420E-12 -.382E-05
   -.582E-08 0.274E-08 -.102E+01   0.533E-13 -.327E-12 0.960E+00   -.971E-25 -.104E-24 0.616E-01   -.388E-12 0.699E-12 -.382E-05
   -.582E-08 0.275E-08 -.102E+01   0.284E-13 -.203E-12 0.960E+00   0.309E-25 -.129E-25 0.616E-01   0.116E-12 -.485E-12 -.382E-05
   -.582E-08 0.280E-08 -.102E+01   -.107E-13 -.231E-12 0.960E+00   0.496E-25 0.129E-24 0.616E-01   -.541E-12 -.789E-12 -.382E-05
   0.274E-08 -.581E-08 -.102E+01   -.178E-12 -.122E-12 0.960E+00   0.262E-25 0.000E+00 0.616E-01   0.143E-12 0.679E-12 -.382E-05
   0.274E-08 -.581E-08 -.102E+01   -.178E-12 -.123E-12 0.960E+00   0.395E-25 0.404E-25 0.616E-01   -.203E-12 0.110E-11 -.382E-05
   0.274E-08 -.580E-08 -.102E+01   -.171E-12 -.679E-13 0.960E+00   0.438E-25 -.103E-24 0.616E-01   0.240E-12 -.728E-12 -.382E-05
   0.274E-08 -.580E-08 -.102E+01   -.185E-12 -.125E-12 0.960E+00   -.229E-25 -.388E-25 0.616E-01   -.391E-12 -.117E-11 -.382E-05
   -.582E-08 0.274E-08 -.102E+01   0.489E-13 -.359E-12 0.960E+00   0.209E-25 -.388E-25 0.616E-01   -.480E-12 0.557E-12 -.382E-05
   -.582E-08 0.271E-08 -.102E+01   0.497E-13 -.359E-12 0.960E+00   -.228E-25 0.646E-25 0.616E-01   0.656E-13 0.593E-12 -.382E-05
   -.582E-08 0.274E-08 -.102E+01   0.281E-13 -.243E-12 0.960E+00   -.585E-26 0.000E+00 0.616E-01   -.688E-12 -.763E-12 -.382E-05
   -.582E-08 0.276E-08 -.102E+01   0.715E-13 -.187E-12 0.960E+00   0.137E-25 0.388E-25 0.616E-01   0.317E-12 -.728E-12 -.382E-05
 -----------------------------------------------------------------------------------------------
   0.548E-06 0.547E-06 -.216E+01   0.493E-13 -.618E-12 -.132E-13   0.867E-18 0.444E-15 0.215E+01   -.398E-11 0.113E-11 0.105E-03
 
 
 POSITION                                       TOTAL-FORCE (eV/Angst)
 -----------------------------------------------------------------------------------
      1.32885      1.31694      1.29945        -0.000260     -0.000038     -0.000046
      6.58642      1.32610      1.29945        -0.000260     -0.000038     -0.000046
      1.33801      6.57450      1.29945        -0.000260     -0.000038     -0.000046
      6.59558      6.58367      1.29945        -0.000260     -0.000038     -0.000046
      3.93788      3.94980      1.29945         0.000260      0.000038     -0.000046
      9.19545      3.95896      1.29945         0.000260      0.000038     -0.000046
      3.94705      9.20736      1.29945         0.000260      0.000038     -0.000046
      9.20462      9.21653      1.29945         0.000260      0.000038     -0.000046
      1.32101      3.93330      9.10834         0.000038      0.000260     -0.000046
      6.57858      3.94247      9.10834         0.000038      0.000260     -0.000046
      1.33018      9.19087      9.10834         0.000038      0.000260     -0.000046
      6.58775      9.20003      9.10834         0.000038      0.000260     -0.000046
      3.94572      1.33343      9.10834        -0.000038     -0.000260     -0.000046
      9.20329      1.34260      9.10834        -0.000038     -0.000260     -0.000046
      3.95488      6.59100      9.10834        -0.000038     -0.000260     -0.000046
      9.21245      6.60016      9.10834        -0.000038     -0.000260     -0.000046
      1.30452      1.31643      6.50538         0.000260      0.000038     -0.000046
      6.56208      1.32560      6.50538         0.000260      0.000038     -0.000046
      1.31368      6.57400      6.50538         0.000260      0.000038     -0.000046
      6.57125      6.58316      6.50538         0.000260      0.000038     -0.000046
      3.96222      3.95030      6.50538        -0.000260     -0.000038     -0.000046
      9.21978      3.95947      6.50538        -0.000260     -0.000038     -0.000046
      3.97138      9.20787      6.50538        -0.000260     -0.000038     -0.000046
      9.22895      9.21703      6.50538        -0.000260     -0.000038     -0.000046
      3.94521      1.30910      3.90241         0.000038      0.000260     -0.000046
      9.20278      1.31826      3.90241         0.000038      0.000260     -0.000046
      3.95438      6.56667      3.90241         0.000038      0.000260     -0.000046
      9.21195      6.57583      3.90241         0.000038      0.000260     -0.000046
      1.32152      3.95763      3.90241        -0.000038     -0.000260     -0.000046
      6.57909      3.96680      3.90241        -0.000038     -0.000260     -0.000046
      1.33068      9.21520      3.90241        -0.000038     -0.000260     -0.000046
      6.58825      9.22437      3.90241        -0.000038     -0.000260     -0.000046
      0.00000      0.00000      5.20765        -0.000000     -0.000000     -0.000050
      5.25757      0.00916      5.20765        -0.000000      0.000000     -0.000050
      0.00916      5.25757      5.20765        -0.000000      0.000000     -0.000050
      5.26673      5.26673      5.20765        -0.000000     -0.000000     -0.000050
      2.62878      0.00458      2.60469        -0.000000      0.000000     -0.000050
      7.88635      0.01375      2.60469        -0.000000      0.000000     -0.000050
      2.63795      5.26215      2.60469        -0.000000      0.000000     -0.000050
      7.89552      5.27132      2.60469        -0.000000     -0.000000     -0.000050
      2.63337      2.63337      0.00173        -0.000000     -0.000000     -0.000050
      7.89093      2.64253      0.00173        -0.000000      0.000000     -0.000050
      2.64253      7.89093      0.00173        -0.000000      0.000000     -0.000050
      7.90010      7.90010      0.00173        -0.000000     -0.000000     -0.000050
      0.00458      2.62878      7.81062        -0.000000     -0.000000     -0.000050
      5.26215      2.63795      7.81062        -0.000000     -0.000000     -0.000050
      0.01375      7.88635      7.81062        -0.000000      0.000000     -0.000050
      5.27132      7.89552      7.81062        -0.000000     -0.000000     -0.000050
      0.00000      0.00000      0.00232        -0.000000      0.000000      0.000143
      5.25757      0.00916      0.00232        -0.000000      0.000000      0.000143
      0.00916      5.25757      0.00232        -0.000000     -0.000000      0.000143
      5.26673      5.26673      0.00232        -0.000000      0.000000      0.000143
      2.62878      0.00458      7.81121        -0.000000      0.000000      0.000143
      7.88635      0.01375      7.81121        -0.000000      0.000000      0.000143
      2.63795      5.26215      7.81121        -0.000000     -0.000000      0.000143
      7.89552      5.27132      7.81121        -0.000000     -0.000000      0.000143
      2.63337      2.63337      5.20825        -0.000000      0.000000      0.000143
      7.89093      2.64253      5.20825        -0.000000     -0.000000      0.000143
      2.64253      7.89093      5.20825        -0.000000     -0.000000      0.000143
      7.90010      7.90010      5.20825        -0.000000      0.000000      0.000143
      0.00458      2.62878      2.60528        -0.000000     -0.000000      0.000143
      5.26215      2.63795      2.60528        -0.000000     -0.000000      0.000143
      0.01375      7.88635      2.60528        -0.000000      0.000000      0.000143
      5.27132      7.89552      2.60528        -0.000000     -0.000000      0.000143
 -----------------------------------------------------------------------------------
    total drift:                                0.000001      0.000001     -0.003789


--------------------------------------------------------------------------------------------------------



  FREE ENERGIE OF THE ION-ELECTRON SYSTEM (eV)
  ---------------------------------------------------
  free  energy   TOTEN  =      -328.12248319 eV

  energy  without entropy=     -328.12248319  energy(sigma->0) =     -328.12248319
 


--------------------------------------------------------------------------------------------------------


    POTLOK:  cpu time    0.1575: real time    0.1583


--------------------------------------------------------------------------------------------------------


 writing wavefunctions
     LOOP+:  cpu time 1867.4046: real time 2130.6804
    4ORBIT:  cpu time    0.0000: real time    0.0000
 


 total charge     
 
# of ion       s       p       d       tot
------------------------------------------
    1        1.313   2.410   0.000   3.724
    2        1.313   2.410   0.000   3.724
    3        1.313   2.410   0.000   3.724
    4        1.313   2.410   0.000   3.724
    5        1.313   2.410   0.000   3.724
    6        1.313   2.410   0.000   3.724
    7        1.313   2.410   0.000   3.724
    8        1.313   2.410   0.000   3.724
    9        1.313   2.410   0.000   3.724
   10        1.313   2.410   0.000   3.724
   11        1.313   2.410   0.000   3.724
   12        1.313   2.410   0.000   3.724
   13        1.313   2.410   0.000   3.724
   14        1.313   2.410   0.000   3.724
   15        1.313   2.410   0.000   3.724
   16        1.313   2.410   0.000   3.724
   17        1.313   2.410   0.000   3.724
   18        1.313   2.410   0.000   3.724
   19        1.313   2.410   0.000   3.724
   20        1.313   2.410   0.000   3.724
   21        1.313   2.410   0.000   3.724
   22        1.313   2.410   0.000   3.724
   23        1.313   2.410   0.000   3.724
   24        1.313   2.410   0.000   3.724
   25        1.313   2.410   0.000   3.724
   26        1.313   2.410   0.000   3.724
   27        1.313   2.410   0.000   3.724
   28        1.313   2.410   0.000   3.724
   29        1.313   2.410   0.000   3.724
   30        1.313   2.410   0.000   3.724
   31        1.313   2.410   0.000   3.724
   32        1.313   2.410   0.000   3.724
   33        0.260   6.202   8.917  15.378
   34        0.260   6.202   8.917  15.378
   35        0.260   6.202   8.917  15.378
   36        0.260   6.202   8.917  15.378
   37        0.260   6.202   8.917  15.378
   38        0.260   6.202   8.917  15.378
   39        0.260   6.202   8.917  15.378
   40        0.260   6.202   8.917  15.378
   41        0.260   6.202   8.917  15.378
   42        0.260   6.202   8.917  15.378
   43        0.260   6.202   8.917  15.378
   44        0.260   6.202   8.917  15.378
   45        0.260   6.202   8.917  15.378
   46        0.260   6.202   8.917  15.378
   47        0.260   6.202   8.917  15.378
   48        0.260   6.202   8.917  15.378
   49        0.350   6.351   5.820  12.521
   50        0.350   6.351   5.820  12.521
   51        0.350   6.351   5.820  12.521
   52        0.350   6.351   5.820  12.521
   53        0.350   6.351   5.820  12.521
   54        0.350   6.351   5.820  12.521
   55        0.350   6.351   5.820  12.521
   56        0.350   6.351   5.820  12.521
   57        0.350   6.351   5.820  12.521
   58        0.350   6.351   5.820  12.521
   59        0.350   6.351   5.820  12.521
   60        0.350   6.351   5.820  12.521
   61        0.350   6.351   5.820  12.521
   62        0.350   6.351   5.820  12.521
   63        0.350   6.351   5.820  12.521
   64        0.350   6.351   5.820  12.521
--------------------------------------------------
tot         51.789 277.978 235.778 565.545
 


 magnetization (x)
 
# of ion       s       p       d       tot
------------------------------------------
    1       -0.000  -0.001   0.000  -0.001
    2       -0.000  -0.001   0.000  -0.001
    3       -0.000  -0.001   0.000  -0.001
    4       -0.000  -0.001   0.000  -0.001
    5       -0.000  -0.001   0.000  -0.001
    6       -0.000  -0.001   0.000  -0.001
    7       -0.000  -0.001   0.000  -0.001
    8       -0.000  -0.001   0.000  -0.001
    9        0.000   0.001   0.000   0.001
   10        0.000   0.001   0.000   0.001
   11        0.000   0.001   0.000   0.001
   12        0.000   0.001   0.000   0.001
   13        0.000   0.001   0.000   0.001
   14        0.000   0.001   0.000   0.001
   15        0.000   0.001   0.000   0.001
   16        0.000   0.001   0.000   0.001
   17       -0.000  -0.001   0.000  -0.001
   18       -0.000  -0.001   0.000  -0.001
   19       -0.000  -0.001   0.000  -0.001
   20       -0.000  -0.001   0.000  -0.001
   21       -0.000  -0.001   0.000  -0.001
   22       -0.000  -0.001   0.000  -0.001
   23       -0.000  -0.001   0.000  -0.001
   24       -0.000  -0.001   0.000  -0.001
   25        0.000   0.001   0.000   0.001
   26        0.000   0.001   0.000   0.001
   27        0.000   0.001   0.000   0.001
   28        0.000   0.001   0.000   0.001
   29        0.000   0.001   0.000   0.001
   30        0.000   0.001   0.000   0.001
   31        0.000   0.001   0.000   0.001
   32        0.000   0.001   0.000   0.001
   33        0.000   0.000  -0.001   0.000
   34        0.000   0.000  -0.001   0.000
   35        0.000   0.000  -0.001   0.000
   36        0.000   0.000  -0.001   0.000
   37       -0.000  -0.000   0.001  -0.000
   38       -0.000  -0.000   0.001  -0.000
   39       -0.000  -0.000   0.001  -0.000
   40       -0.000  -0.000   0.001  -0.000
   41        0.000   0.000  -0.001   0.000
   42        0.000   0.000  -0.001   0.000
   43        0.000   0.000  -0.001   0.000
   44        0.000   0.000  -0.001   0.000
   45       -0.000  -0.000   0.001  -0.000
   46       -0.000  -0.000   0.001  -0.000
   47       -0.000  -0.000   0.001  -0.000
   48       -0.000  -0.000   0.001  -0.000
   49        0.020   0.054   3.671   3.745
   50        0.020   0.054   3.671   3.745
   51        0.020   0.054   3.671   3.745
   52        0.020   0.054   3.671   3.745
   53       -0.020  -0.054  -3.671  -3.745
   54       -0.020  -0.054  -3.671  -3.745
   55       -0.020  -0.054  -3.671  -3.745
   56       -0.020  -0.054  -3.671  -3.745
   57        0.020   0.054   3.671   3.745
   58        0.020   0.054   3.671   3.745
   59        0.020   0.054   3.671   3.745
   60        0.020   0.054   3.671   3.745
   61       -0.020  -0.054  -3.671  -3.745
   62       -0.020  -0.054  -3.671  -3.745
   63       -0.020  -0.054  -3.671  -3.745
   64       -0.020  -0.054  -3.671  -3.745
--------------------------------------------------
tot         -0.000   0.000  -0.000  -0.000
 
 BZINTS: Fermi energy:  4.840917;688.000000 electrons
         Band energy:***********;  BLOECHL correction:  0.000000

 total amount of memory used by VASP MPI-rank0   301249. kBytes
=======================================================================

   base      :      30000. kBytes
   nonl-proj :     175882. kBytes
   fftplans  :       4588. kBytes
   grid      :      69719. kBytes
   one-center:       1990. kBytes
   wavefun   :      19070. kBytes
 
  
  
 General timing and accounting informations for this job:
 ========================================================
  
                  Total CPU time used (sec):     1918.383
                            User time (sec):     1906.354
                          System time (sec):       12.028
                         Elapsed time (sec):     2183.483
  
                   Maximum memory used (kb):      666404.
                   Average memory used (kb):           0.
  
                          Minor page faults:       475000
                          Major page faults:         5539
                 Voluntary context switches:         7775
