       N       E                     dE             d eps       ncg     rms          rms(c)
DAV:   1     0.605789007628E+04    0.60579E+04   -0.51588E+05 16384   0.196E+03
DAV:   2    -0.807278250054E+02   -0.61386E+04   -0.60284E+04 18432   0.445E+02
DAV:   3    -0.324462365597E+03   -0.24373E+03   -0.24292E+03 22016   0.964E+01
DAV:   4    -0.327882761372E+03   -0.34204E+01   -0.34202E+01 19968   0.116E+01
DAV:   5    -0.327986721642E+03   -0.10396E+00   -0.10396E+00 21504   0.197E+00    0.584E-01
DAV:   6    -0.327992916423E+03   -0.61948E-02   -0.53897E-02 23040   0.462E-01    0.321E-01
DAV:   7    -0.327993595807E+03   -0.67938E-03   -0.39909E-03 21760   0.168E-01    0.216E-01
DAV:   8    -0.327993918825E+03   -0.32302E-03   -0.21422E-03 21504   0.125E-01    0.159E-01
DAV:   9    -0.327993966679E+03   -0.47853E-04   -0.21483E-03 20992   0.127E-01    0.123E-01
DAV:  10    -0.327994005318E+03   -0.38640E-04   -0.31179E-04 19456   0.430E-02    0.344E-02
DAV:  11    -0.327994016798E+03   -0.11480E-04   -0.45105E-05 22528   0.133E-02    0.166E-02
DAV:  12    -0.327994040120E+03   -0.23322E-04   -0.75026E-05 18688   0.807E-03    0.999E-03
DAV:  13    -0.327994047596E+03   -0.74765E-05   -0.57683E-05 22016   0.654E-03    0.363E-03
DAV:  14    -0.327994047750E+03   -0.15383E-06   -0.96267E-07 17408   0.199E-03    0.198E-03
DAV:  15    -0.327994047830E+03   -0.80152E-07   -0.18696E-07 24064   0.781E-04    0.992E-04
DAV:  16    -0.327994047884E+03   -0.53973E-07   -0.57411E-08 13824   0.331E-04    0.330E-04
DAV:  17    -0.327994047891E+03   -0.65193E-08   -0.57138E-09 16640   0.149E-04
   1 F= -.32799405E+03 E0= -.32799405E+03  d E =0.000000E+00  mag=     0.0000
