 vasp.5.4.4.18Apr17-6-g9f103f2a35 (build Oct 30 2023 17:30:16) complex          
  
 executed on             LinuxIFC date 2024.06.20  22:19:52
 running on  256 total cores
 distrk:  each k-point on  256 cores,    1 groups
 distr:  one band on NCORES_PER_BAND=   1 cores,  256 groups


--------------------------------------------------------------------------------------------------------


 INCAR:
 POTCAR:    PAW_PBE S 06Sep2000                   
 POTCAR:     PAW_PBE Cu_pv 06Sep2000              
 POTCAR:     PAW_PBE Fe_pv 02Aug2007              

 ----------------------------------------------------------------------------- 
|                                                                             |
|           W    W    AA    RRRRR   N    N  II  N    N   GGGG   !!!           |
|           W    W   A  A   R    R  NN   N  II  NN   N  G    G  !!!           |
|           W    W  A    A  R    R  N N  N  II  N N  N  G       !!!           |
|           W WW W  AAAAAA  RRRRR   N  N N  II  N  N N  G  GGG   !            |
|           WW  WW  A    A  R   R   N   NN  II  N   NN  G    G                |
|           W    W  A    A  R    R  N    N  II  N    N   GGGG   !!!           |
|                                                                             |
|      For optimal performance we recommend to set                            |
|        NCORE= 4 - approx SQRT( number of cores)                             |
|      NCORE specifies how many cores store one orbital (NPAR=cpu/NCORE).     |
|      This setting can  greatly improve the performance of VASP for DFT.     |
|      The default,   NCORE=1            might be grossly inefficient         |
|      on modern multi-core architectures or massively parallel machines.     |
|      Do your own testing !!!!                                               |
|      Unfortunately you need to use the default for GW and RPA calculations. |
|      (for HF NCORE is supported but not extensively tested yet)             |
|                                                                             |
 ----------------------------------------------------------------------------- 

 POTCAR:    PAW_PBE S 06Sep2000                   
   SHA256 =  0fc7481fb0695f01bdc6462160264c5c84044ae9ec85a907d398b887a2bc3132 S/
   COPYR  = (c) Copyright 06Sep2000 Georg Kresse                                
   COPYR  = This file is part of the software VASP. Any use, copying, and all ot
   COPYR  = If you do not have a valid VASP license, you may not use, copy or di
   VRHFIN =S : s2p4                                                             
   LEXCH  = PE                                                                  
   EATOM  =   276.8230 eV,   20.3459 Ry                                         
                                                                                
   TITEL  = PAW_PBE S 06Sep2000                                                 
   LULTRA =        F    use ultrasoft PP ?                                      
   IUNSCR =        1    unscreen: 0-lin 1-nonlin 2-no                           
   RPACOR =    1.500    partial core radius                                     
   POMASS =   32.066; ZVAL   =    6.000    mass and valenz                      
   RCORE  =    1.900    outmost cutoff radius                                   
   RWIGS  =    2.200; RWIGS  =    1.164    wigner-seitz radius (au A)           
   ENMAX  =  258.689; ENMIN  =  194.016 eV                                      
   ICORE  =        2    local potential                                         
   LCOR   =        T    correct aug charges                                     
   LPAW   =        T    paw PP                                                  
   EAUG   =  335.092                                                            
   DEXC   =    0.000                                                            
   RMAX   =    1.942    core radius for proj-oper                               
   RAUG   =    1.300    factor for augmentation sphere                          
   RDEP   =    1.954    radius for radial grids                                 
   RDEPT  =    1.744    core radius for aug-charge                              
                                                                                
   Atomic configuration                                                         
    6 entries                                                                   
     n  l   j            E        occ.                                          
     1  0  0.50     -2405.8406   2.0000                                         
     2  0  0.50      -211.7007   2.0000                                         
     2  1  1.50      -156.4958   6.0000                                         
     3  0  0.50       -17.2562   2.0000                                         
     3  1  0.50        -7.0085   4.0000                                         
     3  2  1.50        -6.8029   0.0000                                         
   Description                                                                  
     l       E           TYP  RCUT    TYP  RCUT                                 
     0    -17.2561641     23  1.900                                             
     0    -15.8743224     23  1.900                                             
     1     -7.0085400     23  1.900                                             
     1     -2.7779785     23  1.900                                             
     2     -6.8029130     23  1.900                                             
  local pseudopotential read in
  partial core-charges read in
  partial kinetic energy density read in
  atomic valenz-charges read in
  non local Contribution for L=           0  read in
    real space projection operators read in
  non local Contribution for L=           0  read in
    real space projection operators read in
  non local Contribution for L=           1  read in
    real space projection operators read in
  non local Contribution for L=           1  read in
    real space projection operators read in
    PAW grid and wavefunctions read in
 
   number of l-projection  operators is LMAX  =           4
   number of lm-projection operators is LMMAX =           8
 
 POTCAR:     PAW_PBE Cu_pv 06Sep2000              
   SHA256 =  cb7b504e2ea725fe1f25c85a9ac77d4012ce94cd394135b722c4e25ec297f1cb Cu
   COPYR  = (c) Copyright 06Sep2000 Georg Kresse                                
   COPYR  = This file is part of the software VASP. Any use, copying, and all ot
   COPYR  = If you do not have a valid VASP license, you may not use, copy or di
   VRHFIN =Cu: d10 p1                                                           
   LEXCH  = PE                                                                  
   EATOM  =  4120.1201 eV,  302.8203 Ry                                         
                                                                                
   TITEL  = PAW_PBE Cu_pv 06Sep2000                                             
   LULTRA =        F    use ultrasoft PP ?                                      
   IUNSCR =        1    unscreen: 0-lin 1-nonlin 2-no                           
   RPACOR =    1.500    partial core radius                                     
   POMASS =   63.546; ZVAL   =   17.000    mass and valenz                      
   RCORE  =    2.000    outmost cutoff radius                                   
   RWIGS  =    2.000; RWIGS  =    1.058    wigner-seitz radius (au A)           
   ENMAX  =  368.648; ENMIN  =  276.486 eV                                      
   RCLOC  =    1.304    cutoff for local pot                                    
   LCOR   =        T    correct aug charges                                     
   LPAW   =        T    paw PP                                                  
   EAUG   =  758.233                                                            
   DEXC   =    0.000                                                            
   RMAX   =    2.046    core radius for proj-oper                               
   RAUG   =    1.300    factor for augmentation sphere                          
   RDEP   =    2.025    radius for radial grids                                 
   RDEPT  =    1.558    core radius for aug-charge                              
                                                                                
   Atomic configuration                                                         
    8 entries                                                                   
     n  l   j            E        occ.                                          
     1  0  0.50     -8850.2467   2.0000                                         
     2  0  0.50     -1062.3498   2.0000                                         
     2  1  1.50      -916.8226   6.0000                                         
     3  0  0.50      -114.6929   2.0000                                         
     3  1  1.50       -72.1325   6.0000                                         
     3  2  2.50        -5.0394  10.0000                                         
     4  0  0.50        -4.6097   1.0000                                         
     4  3  2.50        -1.3606   0.0000                                         
   Description                                                                  
     l       E           TYP  RCUT    TYP  RCUT                                 
     1    -72.1324777     23  1.700                                             
     1     -1.3605826     23  1.700                                             
     2     -5.0393776     23  2.000                                             
     2     -6.3999602     23  2.000                                             
     0     -4.6097062     23  1.800                                             
     0     14.1620818     23  1.800                                             
  local pseudopotential read in
  partial core-charges read in
  partial kinetic energy density read in
  atomic valenz-charges read in
  non local Contribution for L=           1  read in
    real space projection operators read in
  non local Contribution for L=           1  read in
    real space projection operators read in
  non local Contribution for L=           2  read in
    real space projection operators read in
  non local Contribution for L=           2  read in
    real space projection operators read in
  non local Contribution for L=           0  read in
    real space projection operators read in
  non local Contribution for L=           0  read in
    real space projection operators read in
    PAW grid and wavefunctions read in
 
   number of l-projection  operators is LMAX  =           6
   number of lm-projection operators is LMMAX =          18
 
 POTCAR:     PAW_PBE Fe_pv 02Aug2007              
   SHA256 =  5d22e414b1f82158bf2c7ecb8b97b28fd0923e48cadc1c3bf74d524558f5dd32 Fe
   COPYR  = (c) Copyright 02Aug2007 Georg Kresse                                
   COPYR  = This file is part of the software VASP. Any use, copying, and all ot
   COPYR  = If you do not have a valid VASP license, you may not use, copy or di
   VRHFIN =Fe:  3pd7s1                                                          
   LEXCH  = PE                                                                  
   EATOM  =  2457.4239 eV,  180.6156 Ry                                         
                                                                                
   TITEL  = PAW_PBE Fe_pv 02Aug2007                                             
   LULTRA =        F    use ultrasoft PP ?                                      
   IUNSCR =        1    unscreen: 0-lin 1-nonlin 2-no                           
   RPACOR =    1.750    partial core radius                                     
   POMASS =   55.847; ZVAL   =   14.000    mass and valenz                      
   RCORE  =    2.200    outmost cutoff radius                                   
   RWIGS  =    2.200; RWIGS  =    1.164    wigner-seitz radius (au A)           
   ENMAX  =  293.238; ENMIN  =  219.928 eV                                      
   ICORE  =        3    local potential                                         
   LCOR   =        T    correct aug charges                                     
   LPAW   =        T    paw PP                                                  
   EAUG   =  578.342                                                            
   DEXC   =    0.000                                                            
   RMAX   =    2.249    core radius for proj-oper                               
   RAUG   =    1.300    factor for augmentation sphere                          
   RDEP   =    2.296    radius for radial grids                                 
   RDEPT  =    1.766    core radius for aug-charge                              
                                                                                
   Atomic configuration                                                         
    8 entries                                                                   
     n  l   j            E        occ.                                          
     1  0  0.50     -6993.8440   2.0000                                         
     2  0  0.50      -814.6047   2.0000                                         
     2  1  1.50      -693.3689   6.0000                                         
     3  0  0.50       -89.4732   2.0000                                         
     3  1  1.50       -55.6373   6.0000                                         
     3  2  2.50        -3.8151   7.0000                                         
     4  0  0.50        -4.2551   1.0000                                         
     4  3  2.50        -1.3606   0.0000                                         
   Description                                                                  
     l       E           TYP  RCUT    TYP  RCUT                                 
     1    -55.6372668     23  2.000                                             
     1     -5.4423304     23  2.000                                             
     2     -3.8151096     23  2.200                                             
     2     -5.1756922     23  2.200                                             
     0     -4.2550951     23  2.200                                             
     0     27.2116520     23  2.200                                             
     3     -1.3605826     23  2.200                                             
  local pseudopotential read in
  partial core-charges read in
  partial kinetic energy density read in
  atomic valenz-charges read in
  non local Contribution for L=           1  read in
    real space projection operators read in
  non local Contribution for L=           1  read in
    real space projection operators read in
  non local Contribution for L=           2  read in
    real space projection operators read in
  non local Contribution for L=           2  read in
    real space projection operators read in
  non local Contribution for L=           0  read in
    real space projection operators read in
  non local Contribution for L=           0  read in
    real space projection operators read in
    PAW grid and wavefunctions read in
 
   number of l-projection  operators is LMAX  =           6
   number of lm-projection operators is LMMAX =          18
 

 ----------------------------------------------------------------------------- 
|                                                                             |
|  ADVICE TO THIS USER RUNNING 'VASP/VAMP'   (HEAR YOUR MASTER'S VOICE ...):  |
|                                                                             |
|      You have a (more or less) 'large supercell' and for larger cells       |
|      it might be more efficient to use real space projection opertators     |
|      So try LREAL= Auto  in the INCAR   file.                               |
|      Mind:          For very  accurate calculation you might also keep the  |
|      reciprocal projection scheme          (i.e. LREAL=.FALSE.)             |
|                                                                             |
 ----------------------------------------------------------------------------- 


 ----------------------------------------------------------------------------- 
|                                                                             |
|  ADVICE TO THIS USER RUNNING 'VASP/VAMP'   (HEAR YOUR MASTER'S VOICE ...):  |
|                                                                             |
|      You enforced a specific xc-type in the INCAR file,                     |
|      a different type was found on the POTCAR file                          |
|          I HOPE YOU KNOW, WHAT YOU ARE  DOING                               |
|                                                                             |
 ----------------------------------------------------------------------------- 

  PAW_PBE S 06Sep2000                   :
 energy of atom  1       EATOM= -276.8230
 kinetic energy error for atom=    0.0007 (will be added to EATOM!!)
   PAW_PBE Cu_pv 06Sep2000              :
 energy of atom  2       EATOM=-4120.1201
 kinetic energy error for atom=    0.0094 (will be added to EATOM!!)
   PAW_PBE Fe_pv 02Aug2007              :
 energy of atom  3       EATOM=-2457.4239
 kinetic energy error for atom=    0.0025 (will be added to EATOM!!)
 
 
 POSCAR: Fe16 Cu16 S32                           
  positions in direct lattice
  velocities in cartesian coordinates
 exchange correlation table for  LEXCH =       14
   RHO(1)=    0.500       N(1)  =     2000
   RHO(2)=  100.500       N(2)  =     4000
 


--------------------------------------------------------------------------------------------------------


 ion  position               nearest neighbor table
   1  0.126  0.125  0.124-  37 2.26  41 2.26  61 2.27  49 2.28
   2  0.626  0.125  0.124-  38 2.26  42 2.26  62 2.27  50 2.28
   3  0.126  0.625  0.124-  39 2.26  43 2.26  63 2.27  51 2.28
   4  0.626  0.625  0.124-  40 2.26  44 2.26  64 2.27  52 2.28
   5  0.374  0.375  0.124-  39 2.26  41 2.26  62 2.27  52 2.28
   6  0.874  0.375  0.124-  40 2.26  42 2.26  61 2.27  51 2.28
   7  0.374  0.875  0.124-  37 2.26  43 2.26  64 2.27  50 2.28
   8  0.874  0.875  0.124-  38 2.26  44 2.26  63 2.27  49 2.28
   9  0.125  0.374  0.874-  41 2.26  45 2.26  51 2.27  55 2.28
  10  0.625  0.374  0.874-  42 2.26  46 2.26  52 2.27  56 2.28
  11  0.125  0.874  0.874-  43 2.26  47 2.26  49 2.27  53 2.28
  12  0.625  0.874  0.874-  44 2.26  48 2.26  50 2.27  54 2.28
  13  0.375  0.126  0.874-  41 2.26  46 2.26  50 2.27  53 2.28
  14  0.875  0.126  0.874-  42 2.26  45 2.26  49 2.27  54 2.28
  15  0.375  0.626  0.874-  43 2.26  48 2.26  52 2.27  55 2.28
  16  0.875  0.626  0.874-  44 2.26  47 2.26  51 2.27  56 2.28
  17  0.124  0.125  0.624-  45 2.26  33 2.26  53 2.27  57 2.28
  18  0.624  0.125  0.624-  46 2.26  34 2.26  54 2.27  58 2.28
  19  0.124  0.625  0.624-  47 2.26  35 2.26  55 2.27  59 2.28
  20  0.624  0.625  0.624-  48 2.26  36 2.26  56 2.27  60 2.28
  21  0.376  0.375  0.624-  46 2.26  36 2.26  55 2.27  57 2.28
  22  0.876  0.375  0.624-  45 2.26  35 2.26  56 2.27  58 2.28
  23  0.376  0.875  0.624-  48 2.26  34 2.26  53 2.27  59 2.28
  24  0.876  0.875  0.624-  47 2.26  33 2.26  54 2.27  60 2.28
  25  0.375  0.124  0.374-  34 2.26  37 2.26  57 2.27  62 2.28
  26  0.875  0.124  0.374-  33 2.26  38 2.26  58 2.27  61 2.28
  27  0.375  0.624  0.374-  36 2.26  39 2.26  59 2.27  64 2.28
  28  0.875  0.624  0.374-  35 2.26  40 2.26  60 2.27  63 2.28
  29  0.125  0.376  0.374-  35 2.26  39 2.26  57 2.27  61 2.28
  30  0.625  0.376  0.374-  36 2.26  40 2.26  58 2.27  62 2.28
  31  0.125  0.876  0.374-  33 2.26  37 2.26  59 2.27  63 2.28
  32  0.625  0.876  0.374-  34 2.26  38 2.26  60 2.27  64 2.28
  33  0.000  0.000  0.501-  26 2.26  31 2.26  17 2.26  24 2.26
  34  0.500  0.000  0.501-  25 2.26  32 2.26  18 2.26  23 2.26
  35  0.000  0.500  0.501-  28 2.26  29 2.26  19 2.26  22 2.26
  36  0.500  0.500  0.501-  27 2.26  30 2.26  20 2.26  21 2.26
  37  0.250  0.000  0.251-   1 2.26   7 2.26  25 2.26  31 2.26
  38  0.750  0.000  0.251-   2 2.26   8 2.26  26 2.26  32 2.26
  39  0.250  0.500  0.251-   3 2.26   5 2.26  27 2.26  29 2.26
  40  0.750  0.500  0.251-   4 2.26   6 2.26  28 2.26  30 2.26
  41  0.250  0.250  0.001-   9 2.26  13 2.26   1 2.26   5 2.26
  42  0.750  0.250  0.001-  10 2.26  14 2.26   2 2.26   6 2.26
  43  0.250  0.750  0.001-  11 2.26  15 2.26   3 2.26   7 2.26
  44  0.750  0.750  0.001-  12 2.26  16 2.26   4 2.26   8 2.26
  45  0.000  0.250  0.751-  17 2.26  22 2.26   9 2.26  14 2.26
  46  0.500  0.250  0.751-  18 2.26  21 2.26  10 2.26  13 2.26
  47  0.000  0.750  0.751-  19 2.26  24 2.26  11 2.26  16 2.26
  48  0.500  0.750  0.751-  20 2.26  23 2.26  12 2.26  15 2.26
  49  0.000  0.000  0.001-  11 2.27  14 2.27   1 2.28   8 2.28
  50  0.500  0.000  0.001-  12 2.27  13 2.27   2 2.28   7 2.28
  51  0.000  0.500  0.001-   9 2.27  16 2.27   3 2.28   6 2.28
  52  0.500  0.500  0.001-  10 2.27  15 2.27   4 2.28   5 2.28
  53  0.250  0.000  0.751-  17 2.27  23 2.27  11 2.28  13 2.28
  54  0.750  0.000  0.751-  18 2.27  24 2.27  12 2.28  14 2.28
  55  0.250  0.500  0.751-  19 2.27  21 2.27   9 2.28  15 2.28
  56  0.750  0.500  0.751-  20 2.27  22 2.27  10 2.28  16 2.28
  57  0.250  0.250  0.501-  25 2.27  29 2.27  17 2.28  21 2.28
  58  0.750  0.250  0.501-  26 2.27  30 2.27  18 2.28  22 2.28
  59  0.250  0.750  0.501-  27 2.27  31 2.27  19 2.28  23 2.28
  60  0.750  0.750  0.501-  28 2.27  32 2.27  20 2.28  24 2.28
  61  0.000  0.250  0.251-   1 2.27   6 2.27  26 2.28  29 2.28
  62  0.500  0.250  0.251-   2 2.27   5 2.27  25 2.28  30 2.28
  63  0.000  0.750  0.251-   3 2.27   8 2.27  28 2.28  31 2.28
  64  0.500  0.750  0.251-   4 2.27   7 2.27  27 2.28  32 2.28
 
  LATTYP: Found a base centered orthorhombic cell.
 ALAT       =    14.7365027139
 B/A-ratio  =     1.0175910803
 C/A-ratio  =     0.7068295113
  
  Lattice vectors:
  
 A1 = (  10.5119330000,   0.0916520000,   0.0000000000)
 A2 = (  -0.0916520000, -10.5119330000,   0.0000000000)
 A3 = (   0.0000000000,   0.0000000000, -10.4161950113)


Analysis of symmetry for initial positions (statically):
=====================================================================
 Subroutine PRICEL returns following result:
 
  LATTYP: Found a face centered orthorhombic cell.
 ALAT       =     7.3682513570
 B/A-ratio  =     1.0175910803
 C/A-ratio  =     1.4136590226
  
  Lattice vectors:
  
 A1 = (  -2.6508962500,  -2.6508962500,   5.2080975057)
 A2 = (  -2.6050702500,   2.6050702500,   5.2080975057)
 A3 = (  -5.2559665000,  -0.0458260000,   0.0000000000)
 
   8 primitive cells build up your supercell.
 

 Routine SETGRP: Setting up the symmetry group for a 
 base centered orthorhombic supercell.


 Subroutine GETGRP returns: Found  4 space group operations
 (whereof  2 operations were pure point group operations)
 out of a pool of  8 trial point group operations.


The static configuration has the point symmetry C_2 .
 The point group associated with its full space group is C_2v.


Analysis of symmetry for dynamics (positions and initial velocities):
=====================================================================
 Subroutine PRICEL returns following result:
 
  LATTYP: Found a face centered orthorhombic cell.
 ALAT       =     7.3682513570
 B/A-ratio  =     1.0175910803
 C/A-ratio  =     1.4136590226
  
  Lattice vectors:
  
 A1 = (  -2.6508962500,  -2.6508962500,   5.2080975057)
 A2 = (  -2.6050702500,   2.6050702500,   5.2080975057)
 A3 = (  -5.2559665000,  -0.0458260000,   0.0000000000)
 
   8 primitive cells build up your supercell.
 

 Routine SETGRP: Setting up the symmetry group for a 
 base centered orthorhombic supercell.


 Subroutine GETGRP returns: Found  4 space group operations
 (whereof  2 operations were pure point group operations)
 out of a pool of  8 trial point group operations.


The dynamic configuration has the point symmetry C_2 .
 The point group associated with its full space group is C_2v.


Analysis of structural, dynamic, and magnetic symmetry:
=====================================================================
 Subroutine PRICEL returns following result:
 
  LATTYP: Found a face centered orthorhombic cell.
 ALAT       =     7.3682513570
 B/A-ratio  =     1.0175910803
 C/A-ratio  =     1.4136590226
  
  Lattice vectors:
  
 A1 = (  -2.6508962500,  -2.6508962500,   5.2080975057)
 A2 = (  -2.6050702500,   2.6050702500,   5.2080975057)
 A3 = (  -5.2559665000,  -0.0458260000,   0.0000000000)
 
   8 primitive cells build up your supercell.
 

 Routine SETGRP: Setting up the symmetry group for a 
 base centered orthorhombic supercell.


 Subroutine GETGRP returns: Found  4 space group operations
 (whereof  2 operations were pure point group operations)
 out of a pool of  8 trial point group operations.


The magnetic configuration has the point symmetry C_2 .
 The point group associated with its full space group is C_2v.


 Subroutine INISYM returns: Found  4 space group operations
 (whereof  2 operations are pure point group operations),
 and found     8 'primitive' translations

 
 
 KPOINTS: Automatic mesh                          

Automatic generation of k-mesh.
Space group operators:
 irot       det(A)        alpha          n_x          n_y          n_z        tau_x        tau_y        tau_z
    1     1.000000     0.000000     1.000000     0.000000     0.000000     0.000000     0.000000     0.000000
    2     1.000000   180.000000     0.000000     0.000000     1.000000     0.000000     0.000000     0.000000
    3    -1.000000   180.000000     0.707107     0.707107     0.000000    -0.750000    -0.000000     0.750000
    4    -1.000000   180.000000     0.707107    -0.707107     0.000000    -0.750000    -0.000000     0.750000
 
 Subroutine IBZKPT returns following result:
 ===========================================
 
 Found     21 irreducible k-points:
 
 Following reciprocal coordinates:
            Coordinates               Weight
  0.000000  0.000000  0.000000      1.000000
  0.250000  0.000000  0.000000      4.000000
  0.500000  0.000000  0.000000      2.000000
  0.250000  0.250000  0.000000      2.000000
  0.500000  0.250000  0.000000      4.000000
 -0.250000  0.250000  0.000000      2.000000
  0.500000  0.500000  0.000000      1.000000
  0.000000  0.000000  0.250000      2.000000
  0.250000  0.000000  0.250000      8.000000
  0.500000  0.000000  0.250000      4.000000
  0.250000  0.250000  0.250000      4.000000
  0.500000  0.250000  0.250000      8.000000
 -0.250000  0.250000  0.250000      4.000000
  0.500000  0.500000  0.250000      2.000000
  0.000000  0.000000  0.500000      1.000000
  0.250000  0.000000  0.500000      4.000000
  0.500000  0.000000  0.500000      2.000000
  0.250000  0.250000  0.500000      2.000000
  0.500000  0.250000  0.500000      4.000000
 -0.250000  0.250000  0.500000      2.000000
  0.500000  0.500000  0.500000      1.000000
 
 Following cartesian coordinates:
            Coordinates               Weight
  0.000000  0.000000  0.000000      1.000000
  0.023784 -0.000207  0.000000      4.000000
  0.047569 -0.000415  0.000000      2.000000
  0.023577  0.023577  0.000000      2.000000
  0.047361  0.023370  0.000000      4.000000
 -0.023992  0.023992  0.000000      2.000000
  0.047154  0.047154  0.000000      1.000000
  0.000000  0.000000  0.024001      2.000000
  0.023784 -0.000207  0.024001      8.000000
  0.047569 -0.000415  0.024001      4.000000
  0.023577  0.023577  0.024001      4.000000
  0.047361  0.023370  0.024001      8.000000
 -0.023992  0.023992  0.024001      4.000000
  0.047154  0.047154  0.024001      2.000000
  0.000000  0.000000  0.048002      1.000000
  0.023784 -0.000207  0.048002      4.000000
  0.047569 -0.000415  0.048002      2.000000
  0.023577  0.023577  0.048002      2.000000
  0.047361  0.023370  0.048002      4.000000
 -0.023992  0.023992  0.048002      2.000000
  0.047154  0.047154  0.048002      1.000000
 
 TETIRR: Found     96 inequivalent tetrahedra from      384
 
 Subroutine IBZKPT_HF returns following result:
 ==============================================
 
 Found     64 k-points in 1st BZ
 the following     64 k-points will be used (e.g. in the exchange kernel)
 Following reciprocal coordinates:   # in IRBZ
  0.000000  0.000000  0.000000    0.01562500   1 t-inv F
  0.250000  0.000000  0.000000    0.01562500   2 t-inv F
  0.500000  0.000000  0.000000    0.01562500   3 t-inv F
  0.250000  0.250000  0.000000    0.01562500   4 t-inv F
  0.500000  0.250000  0.000000    0.01562500   5 t-inv F
 -0.250000  0.250000  0.000000    0.01562500   6 t-inv F
  0.500000  0.500000  0.000000    0.01562500   7 t-inv F
  0.000000  0.000000  0.250000    0.01562500   8 t-inv F
  0.250000  0.000000  0.250000    0.01562500   9 t-inv F
  0.500000  0.000000  0.250000    0.01562500  10 t-inv F
  0.250000  0.250000  0.250000    0.01562500  11 t-inv F
  0.500000  0.250000  0.250000    0.01562500  12 t-inv F
 -0.250000  0.250000  0.250000    0.01562500  13 t-inv F
  0.500000  0.500000  0.250000    0.01562500  14 t-inv F
  0.000000  0.000000  0.500000    0.01562500  15 t-inv F
  0.250000  0.000000  0.500000    0.01562500  16 t-inv F
  0.500000  0.000000  0.500000    0.01562500  17 t-inv F
  0.250000  0.250000  0.500000    0.01562500  18 t-inv F
  0.500000  0.250000  0.500000    0.01562500  19 t-inv F
 -0.250000  0.250000  0.500000    0.01562500  20 t-inv F
  0.500000  0.500000  0.500000    0.01562500  21 t-inv F
 -0.250000  0.000000  0.000000    0.01562500   2 t-inv F
  0.000000 -0.250000  0.000000    0.01562500   2 t-inv F spinflp
  0.000000  0.250000  0.000000    0.01562500   2 t-inv F spinflp
  0.000000 -0.500000  0.000000    0.01562500   3 t-inv F spinflp
 -0.250000 -0.250000  0.000000    0.01562500   4 t-inv F
 -0.500000 -0.250000  0.000000    0.01562500   5 t-inv F
 -0.250000 -0.500000  0.000000    0.01562500   5 t-inv F spinflp
  0.250000  0.500000  0.000000    0.01562500   5 t-inv F spinflp
  0.250000 -0.250000  0.000000    0.01562500   6 t-inv F
 -0.250000  0.000000  0.250000    0.01562500   9 t-inv F
  0.000000 -0.250000  0.250000    0.01562500   9 t-inv F spinflp
  0.000000  0.250000  0.250000    0.01562500   9 t-inv F spinflp
  0.000000 -0.500000  0.250000    0.01562500  10 t-inv F spinflp
 -0.250000 -0.250000  0.250000    0.01562500  11 t-inv F
 -0.500000 -0.250000  0.250000    0.01562500  12 t-inv F
 -0.250000 -0.500000  0.250000    0.01562500  12 t-inv F spinflp
  0.250000  0.500000  0.250000    0.01562500  12 t-inv F spinflp
  0.250000 -0.250000  0.250000    0.01562500  13 t-inv F
 -0.250000  0.000000  0.500000    0.01562500  16 t-inv F
  0.000000 -0.250000  0.500000    0.01562500  16 t-inv F spinflp
  0.000000  0.250000  0.500000    0.01562500  16 t-inv F spinflp
  0.000000 -0.500000  0.500000    0.01562500  17 t-inv F spinflp
 -0.250000 -0.250000  0.500000    0.01562500  18 t-inv F
 -0.500000 -0.250000  0.500000    0.01562500  19 t-inv F
 -0.250000 -0.500000  0.500000    0.01562500  19 t-inv F spinflp
  0.250000  0.500000  0.500000    0.01562500  19 t-inv F spinflp
  0.250000 -0.250000  0.500000    0.01562500  20 t-inv F
  0.000000  0.000000 -0.250000    0.01562500   8 t-inv T
 -0.250000  0.000000 -0.250000    0.01562500   9 t-inv T
  0.250000  0.000000 -0.250000    0.01562500   9 t-inv T
  0.000000  0.250000 -0.250000    0.01562500   9 t-inv T spinflp
  0.000000 -0.250000 -0.250000    0.01562500   9 t-inv T spinflp
 -0.500000  0.000000 -0.250000    0.01562500  10 t-inv T
  0.000000  0.500000 -0.250000    0.01562500  10 t-inv T spinflp
 -0.250000 -0.250000 -0.250000    0.01562500  11 t-inv T
  0.250000  0.250000 -0.250000    0.01562500  11 t-inv T
 -0.500000 -0.250000 -0.250000    0.01562500  12 t-inv T
  0.500000  0.250000 -0.250000    0.01562500  12 t-inv T
  0.250000  0.500000 -0.250000    0.01562500  12 t-inv T spinflp
 -0.250000 -0.500000 -0.250000    0.01562500  12 t-inv T spinflp
  0.250000 -0.250000 -0.250000    0.01562500  13 t-inv T
 -0.250000  0.250000 -0.250000    0.01562500  13 t-inv T
 -0.500000 -0.500000 -0.250000    0.01562500  14 t-inv T


--------------------------------------------------------------------------------------------------------




 Dimension of arrays:
   k-points           NKPTS =     21   k-points in BZ     NKDIM =     21   number of bands    NBANDS=    512
   number of dos      NEDOS =    301   number of ions     NIONS =     64
   non local maximal  LDIM  =      6   non local SUM 2l+1 LMDIM =     18
   total plane-waves  NPLWV = 829440
   max r-space proj   IRMAX =      1   max aug-charges    IRDMAX=  22902
   dimension x,y,z NGX =    96 NGY =   96 NGZ =   90
   dimension x,y,z NGXF=   192 NGYF=  192 NGZF=  180
   support grid    NGXF=   192 NGYF=  192 NGZF=  180
   ions per type =              32  16  16
   NGX,Y,Z   is equivalent  to a cutoff of  15.18, 15.18, 14.36 a.u.
   NGXF,Y,Z  is equivalent  to a cutoff of  30.36, 30.36, 28.73 a.u.

 SYSTEM =  CuFeS2                                  
 POSCAR =  Fe16 Cu16 S32                           

 Startparameter for this run:
   NWRITE =      2    write-flag & timer
   PREC   = accura    normal or accurate (medium, high low for compatibility)
   ISTART =      1    job   : 0-new  1-cont  2-samecut
   ICHARG =      1    charge: 1-file 2-atom 10-const
   ISPIN  =      2    spin polarized calculation?
   LNONCOLLINEAR =      F non collinear calculations
   LSORBIT =      F    spin-orbit coupling
   INIWAV =      1    electr: 0-lowe 1-rand  2-diag
   LASPH  =      F    aspherical Exc in radial PAW
   METAGGA=      F    non-selfconsistent MetaGGA calc.

 Electronic Relaxation 1
   ENCUT  =  700.0 eV  51.45 Ry    7.17 a.u.  22.68 22.68 22.47*2*pi/ulx,y,z
   ENINI  =  700.0     initial cutoff
   ENAUG  =  758.2 eV  augmentation charge cutoff
   NELM   =    500;   NELMIN=  2; NELMDL=  0     # of ELM steps 
   EDIFF  = 0.1E-07   stopping-criterion for ELM
   LREAL  =      F    real-space projection
   NLSPLINE    = F    spline interpolate recip. space projectors
   LCOMPAT=      F    compatible to vasp.4.4
   GGA_COMPAT  = T    GGA compatible to vasp.4.4-vasp.4.6
   LMAXPAW     = -100 max onsite density
   LMAXMIX     =    4 max onsite mixed and CHGCAR
   VOSKOWN=      0    Vosko Wilk Nusair interpolation
   ROPT   =    0.00000   0.00000   0.00000
 Ionic relaxation
   EDIFFG = -.1E-04   stopping-criterion for IOM
   NSW    =      0    number of steps for IOM
   NBLOCK =      1;   KBLOCK =      1    inner block; outer block 
   IBRION =     -1    ionic relax: 0-MD 1-quasi-New 2-CG
   NFREE  =      0    steps in history (QN), initial steepest desc. (CG)
   ISIF   =      2    stress and relaxation
   IWAVPR =     10    prediction:  0-non 1-charg 2-wave 3-comb
   ISYM   =      2    0-nonsym 1-usesym 2-fastsym
   LCORR  =      T    Harris-Foulkes like correction to forces

   POTIM  = 0.5000    time-step for ionic-motion
   TEIN   =    0.0    initial temperature
   TEBEG  =    0.0;   TEEND  =   0.0 temperature during run
   SMASS  =  -3.00    Nose mass-parameter (am)
   estimated Nose-frequenzy (Omega)   =  0.10E-29 period in steps =****** mass=  -0.253E-26a.u.
   SCALEE = 1.0000    scale energy and forces
   NPACO  =    256;   APACO  = 16.0  distance and # of slots for P.C.
   PSTRESS=    0.0 pullay stress

  Mass of Ions in am
   POMASS =  32.07 63.55 55.85
  Ionic Valenz
   ZVAL   =   6.00 17.00 14.00
  Atomic Wigner-Seitz radii
   RWIGS  =  -1.00 -1.00 -1.00
  virtual crystal weights 
   VCA    =   1.00  1.00  1.00
   NELECT =     688.0000    total number of electrons
   NUPDOWN=      -1.0000    fix difference up-down

 DOS related values:
   EMIN   =  10.00;   EMAX   =-10.00  energy-range for DOS
   EFERMI =   0.00
   ISMEAR =    -5;   SIGMA  =   0.03  broadening in eV -4-tet -1-fermi 0-gaus

 Electronic relaxation 2 (details)
   IALGO  =     38    algorithm
   LDIAG  =      T    sub-space diagonalisation (order eigenvalues)
   LSUBROT=      F    optimize rotation matrix (better conditioning)
   TURBO    =      0    0=normal 1=particle mesh
   IRESTART =      0    0=no restart 2=restart with 2 vectors
   NREBOOT  =      0    no. of reboots
   NMIN     =      0    reboot dimension
   EREF     =   0.00    reference energy to select bands
   IMIX   =      4    mixing-type and parameters
     AMIX     =   0.40;   BMIX     =  1.00
     AMIX_MAG =   1.60;   BMIX_MAG =  1.00
     AMIN     =   0.10
     WC   =   100.;   INIMIX=   1;  MIXPRE=   1;  MAXMIX= -45

 Intra band minimization:
   WEIMIN = 0.0000     energy-eigenvalue tresh-hold
   EBREAK =  0.49E-11  absolut break condition
   DEPER  =   0.30     relativ break condition  

   TIME   =   0.40     timestep for ELM

  volume/ion in A,a.u.               =      17.98       121.36
  Fermi-wavevector in a.u.,A,eV,Ry     =   1.379083  2.606090 25.876530  1.901871
  Thomas-Fermi vector in A             =   2.504086
 
 Write flags
   LWAVE        =      T    write WAVECAR
   LDOWNSAMPLE  =      F    k-point downsampling of WAVECAR
   LCHARG       =      T    write CHGCAR
   LVTOT        =      F    write LOCPOT, total local potential
   LVHAR        =      F    write LOCPOT, Hartree potential only
   LELF         =      F    write electronic localiz. function (ELF)
   LORBIT       =     11    0 simple, 1 ext, 2 COOP (PROOUT), +10 PAW based schemes


 Dipole corrections
   LMONO  =      F    monopole corrections only (constant potential shift)
   LDIPOL =      F    correct potential (dipole corrections)
   IDIPOL =      0    1-x, 2-y, 3-z, 4-all directions 
   EPSILON=  1.0000000 bulk dielectric constant

 LDA+U is selected, type is set to LDAUTYPE =  2
   angular momentum for each species LDAUL =     2    2    2
   U (eV)           for each species LDAUU =   0.0  0.1  4.7
   J (eV)           for each species LDAUJ =   0.0  0.0  0.0
 Exchange correlation treatment:
   GGA     =    PS    GGA type
   LEXCH   =    14    internal setting for exchange type
   VOSKOWN=      0    Vosko Wilk Nusair interpolation
   LHFCALC =     F    Hartree Fock is set to
   LHFONE  =     F    Hartree Fock one center treatment
   AEXX    =    0.0000 exact exchange contribution

 Linear response parameters
   LEPSILON=     F    determine dielectric tensor
   LRPA    =     F    only Hartree local field effects (RPA)
   LNABLA  =     F    use nabla operator in PAW spheres
   LVEL    =     F    velocity operator in full k-point grid
   LINTERFAST=   F  fast interpolation
   KINTER  =     0    interpolate to denser k-point grid
   CSHIFT  =0.1000    complex shift for real part using Kramers Kronig
   OMEGAMAX=  -1.0    maximum frequency
   DEG_THRESHOLD= 0.2000000E-02 threshold for treating states as degnerate
   RTIME   =   -0.100 relaxation time in fs
  (WPLASMAI=    0.000 imaginary part of plasma frequency in eV, 0.658/RTIME)
   DFIELD  = 0.0000000 0.0000000 0.0000000 field for delta impulse in time
 
 Orbital magnetization related:
   ORBITALMAG=     F  switch on orbital magnetization
   LCHIMAG   =     F  perturbation theory with respect to B field
   DQ        =  0.001000  dq finite difference perturbation B field
   LLRAUG    =     F  two centre corrections for induced B field

 PEAD related settings:
   LPEAD      =     T    switch on PEAD
   IPEAD      =     4    finite difference order for dpsi/dk
   LCALCPOL   =     T    calculate macroscopic polarization
   LCALCEPS   =     F    calculate dielectric tensor
   EFIELD_PEAD=    0.0000    0.0000    0.0000
   SKIP_EDOTP =     F
   LRPA       =     F
   SKIP_SCF   =     F


--------------------------------------------------------------------------------------------------------


 Static calculation
 charge density and potential will be updated during run
 spin polarized calculation
 Variant of blocked Davidson
 Davidson routine will perform the subspace rotation
 perform sub-space diagonalisation
    after iterative eigenvector-optimisation
 modified Broyden-mixing scheme, WC =      100.0
 initial mixing is a Kerker type mixing with AMIX =  0.4000 and BMIX =      1.0000
 Hartree-type preconditioning will be used
 using additional bands          168
 reciprocal scheme for non local part
 use partial core corrections
 calculate Harris-corrections to forces 
   (improved forces if not selfconsistent)
 use gradient corrections 
 use of overlap-Matrix (Vanderbilt PP)
 Fermi weights with tetrahedron method with Bloechl corrections


--------------------------------------------------------------------------------------------------------


  energy-cutoff  :      700.00
  volume of cell :     1150.91
      direct lattice vectors                 reciprocal lattice vectors
    10.511933000  0.091652000  0.000000000     0.095137214 -0.000829487  0.000000000
     0.091652000 10.511933000  0.000000000    -0.000829487  0.095137214  0.000000000
     0.000000000  0.000000000 10.416195011     0.000000000  0.000000000  0.096004347

  length of vectors
    10.512332543 10.512332543 10.416195011     0.095140830  0.095140830  0.096004347


 
 old parameters found on file WAVECAR:
  energy-cutoff  :      700.00
  volume of cell :     1150.91
      direct lattice vectors                 reciprocal lattice vectors
    10.511933000  0.091652000  0.000000000     0.095137214 -0.000829487  0.000000000
     0.091652000 10.511933000  0.000000000    -0.000829487  0.095137214  0.000000000
     0.000000000  0.000000000 10.416186549     0.000000000  0.000000000  0.096004425

  length of vectors

 
 k-points in units of 2pi/SCALE and weight: Automatic mesh                          
   0.00000000  0.00000000  0.00000000       0.016
   0.02378430 -0.00020737  0.00000000       0.062
   0.04756861 -0.00041474  0.00000000       0.031
   0.02357693  0.02357693  0.00000000       0.031
   0.04736124  0.02336956  0.00000000       0.062
  -0.02399168  0.02399168  0.00000000       0.031
   0.04715386  0.04715386  0.00000000       0.016
   0.00000000  0.00000000  0.02400109       0.031
   0.02378430 -0.00020737  0.02400109       0.125
   0.04756861 -0.00041474  0.02400109       0.062
   0.02357693  0.02357693  0.02400109       0.062
   0.04736124  0.02336956  0.02400109       0.125
  -0.02399168  0.02399168  0.02400109       0.062
   0.04715386  0.04715386  0.02400109       0.031
   0.00000000  0.00000000  0.04800217       0.016
   0.02378430 -0.00020737  0.04800217       0.062
   0.04756861 -0.00041474  0.04800217       0.031
   0.02357693  0.02357693  0.04800217       0.031
   0.04736124  0.02336956  0.04800217       0.062
  -0.02399168  0.02399168  0.04800217       0.031
   0.04715386  0.04715386  0.04800217       0.016
 
 k-points in reciprocal lattice and weights: Automatic mesh                          
   0.00000000  0.00000000  0.00000000       0.016
   0.25000000  0.00000000  0.00000000       0.062
   0.50000000  0.00000000  0.00000000       0.031
   0.25000000  0.25000000  0.00000000       0.031
   0.50000000  0.25000000  0.00000000       0.062
  -0.25000000  0.25000000  0.00000000       0.031
   0.50000000  0.50000000  0.00000000       0.016
   0.00000000  0.00000000  0.25000000       0.031
   0.25000000  0.00000000  0.25000000       0.125
   0.50000000  0.00000000  0.25000000       0.062
   0.25000000  0.25000000  0.25000000       0.062
   0.50000000  0.25000000  0.25000000       0.125
  -0.25000000  0.25000000  0.25000000       0.062
   0.50000000  0.50000000  0.25000000       0.031
   0.00000000  0.00000000  0.50000000       0.016
   0.25000000  0.00000000  0.50000000       0.062
   0.50000000  0.00000000  0.50000000       0.031
   0.25000000  0.25000000  0.50000000       0.031
   0.50000000  0.25000000  0.50000000       0.062
  -0.25000000  0.25000000  0.50000000       0.031
   0.50000000  0.50000000  0.50000000       0.016
 
 position of ions in fractional coordinates (direct lattice) 
   0.12615887  0.12510197  0.12402316
   0.62615887  0.12510197  0.12402316
   0.12615887  0.62510197  0.12402316
   0.62615887  0.62510197  0.12402316
   0.37384113  0.37489803  0.12402316
   0.87384113  0.37489803  0.12402316
   0.37384113  0.87489803  0.12402316
   0.87384113  0.87489803  0.12402316
   0.12489803  0.37384113  0.87402316
   0.62489803  0.37384113  0.87402316
   0.12489803  0.87384113  0.87402316
   0.62489803  0.87384113  0.87402316
   0.37510197  0.12615887  0.87402316
   0.87510197  0.12615887  0.87402316
   0.37510197  0.62615887  0.87402316
   0.87510197  0.62615887  0.87402316
   0.12384113  0.12489803  0.62402316
   0.62384113  0.12489803  0.62402316
   0.12384113  0.62489803  0.62402316
   0.62384113  0.62489803  0.62402316
   0.37615887  0.37510197  0.62402316
   0.87615887  0.37510197  0.62402316
   0.37615887  0.87510197  0.62402316
   0.87615887  0.87510197  0.62402316
   0.37489803  0.12384113  0.37402316
   0.87489803  0.12384113  0.37402316
   0.37489803  0.62384113  0.37402316
   0.87489803  0.62384113  0.37402316
   0.12510197  0.37615887  0.37402316
   0.62510197  0.37615887  0.37402316
   0.12510197  0.87615887  0.37402316
   0.62510197  0.87615887  0.37402316
   0.00000000  0.00000000  0.50084472
   0.50000000  0.00000000  0.50084472
   0.00000000  0.50000000  0.50084472
   0.50000000  0.50000000  0.50084472
   0.25000000  0.00000000  0.25084472
   0.75000000  0.00000000  0.25084472
   0.25000000  0.50000000  0.25084472
   0.75000000  0.50000000  0.25084472
   0.25000000  0.25000000  0.00084472
   0.75000000  0.25000000  0.00084472
   0.25000000  0.75000000  0.00084472
   0.75000000  0.75000000  0.00084472
   0.00000000  0.25000000  0.75084472
   0.50000000  0.25000000  0.75084472
   0.00000000  0.75000000  0.75084472
   0.50000000  0.75000000  0.75084472
   0.00000000  0.00000000  0.00110896
   0.50000000  0.00000000  0.00110896
   0.00000000  0.50000000  0.00110896
   0.50000000  0.50000000  0.00110896
   0.25000000  0.00000000  0.75110896
   0.75000000  0.00000000  0.75110896
   0.25000000  0.50000000  0.75110896
   0.75000000  0.50000000  0.75110896
   0.25000000  0.25000000  0.50110896
   0.75000000  0.25000000  0.50110896
   0.25000000  0.75000000  0.50110896
   0.75000000  0.75000000  0.50110896
   0.00000000  0.25000000  0.25110896
   0.50000000  0.25000000  0.25110896
   0.00000000  0.75000000  0.25110896
   0.50000000  0.75000000  0.25110896
 
 position of ions in cartesian coordinates  (Angst):
   1.33763945  1.32662627  1.29184941
   6.59360595  1.37245227  1.29184941
   1.38346545  6.58259277  1.29184941
   6.63943195  6.62841877  1.29184941
   3.96415305  3.97516623  1.29184941
   9.22011955  4.02099223  1.29184941
   4.00997905  9.23113273  1.29184941
   9.26594555  9.27695873  1.29184941
   1.34718298  3.94124005  9.10399567
   6.60314948  3.98706605  9.10399567
   1.39300898  9.19720655  9.10399567
   6.64897548  9.24303255  9.10399567
   3.95460952  1.36055245  9.10399567
   9.21057602  1.40637845  9.10399567
   4.00043552  6.61651895  9.10399567
   9.25640202  6.66234495  9.10399567
   1.31325680  1.32426998  6.49994691
   6.56922330  1.37009598  6.49994691
   1.35908280  6.58023648  6.49994691
   6.61504930  6.62606248  6.49994691
   3.98853570  3.97752252  6.49994691
   9.24450220  4.02334852  6.49994691
   4.03436170  9.23348902  6.49994691
   9.29032820  9.27931502  6.49994691
   3.95225323  1.33616980  3.89589816
   9.20821973  1.38199580  3.89589816
   3.99807923  6.59213630  3.89589816
   9.25404573  6.63796230  3.89589816
   1.34953927  3.96562270  3.89589816
   6.60550577  4.01144870  3.89589816
   1.39536527  9.22158920  3.89589816
   6.65133177  9.26741520  3.89589816
   0.00000000  0.00000000  5.21689627
   5.25596650  0.04582600  5.21689627
   0.04582600  5.25596650  5.21689627
   5.30179250  5.30179250  5.21689627
   2.62798325  0.02291300  2.61284751
   7.88394975  0.06873900  2.61284751
   2.67380925  5.27887950  2.61284751
   7.92977575  5.32470550  2.61284751
   2.65089625  2.65089625  0.00879876
   7.90686275  2.69672225  0.00879876
   2.69672225  7.90686275  0.00879876
   7.95268875  7.95268875  0.00879876
   0.02291300  2.62798325  7.82094502
   5.27887950  2.67380925  7.82094502
   0.06873900  7.88394975  7.82094502
   5.32470550  7.92977575  7.82094502
   0.00000000  0.00000000  0.01155117
   5.25596650  0.04582600  0.01155117
   0.04582600  5.25596650  0.01155117
   5.30179250  5.30179250  0.01155117
   2.62798325  0.02291300  7.82369743
   7.88394975  0.06873900  7.82369743
   2.67380925  5.27887950  7.82369743
   7.92977575  5.32470550  7.82369743
   2.65089625  2.65089625  5.21964868
   7.90686275  2.69672225  5.21964868
   2.69672225  7.90686275  5.21964868
   7.95268875  7.95268875  5.21964868
   0.02291300  2.62798325  2.61559993
   5.27887950  2.67380925  2.61559993
   0.06873900  7.88394975  2.61559993
   5.32470550  7.92977575  2.61559993
 


--------------------------------------------------------------------------------------------------------


 k-point  1 :   0.0000 0.0000 0.0000  plane waves:   48411
 k-point  2 :   0.2500 0.0000 0.0000  plane waves:   48409
 k-point  3 :   0.5000 0.0000 0.0000  plane waves:   48432
 k-point  4 :   0.2500 0.2500 0.0000  plane waves:   48406
 k-point  5 :   0.5000 0.2500 0.0000  plane waves:   48412
 k-point  6 :  -0.2500 0.2500 0.0000  plane waves:   48456
 k-point  7 :   0.5000 0.5000 0.0000  plane waves:   48480
 k-point  8 :   0.0000 0.0000 0.2500  plane waves:   48425
 k-point  9 :   0.2500 0.0000 0.2500  plane waves:   48417
 k-point 10 :   0.5000 0.0000 0.2500  plane waves:   48422
 k-point 11 :   0.2500 0.2500 0.2500  plane waves:   48420
 k-point 12 :   0.5000 0.2500 0.2500  plane waves:   48386
 k-point 13 :  -0.2500 0.2500 0.2500  plane waves:   48416
 k-point 14 :   0.5000 0.5000 0.2500  plane waves:   48424
 k-point 15 :   0.0000 0.0000 0.5000  plane waves:   48396
 k-point 16 :   0.2500 0.0000 0.5000  plane waves:   48396
 k-point 17 :   0.5000 0.0000 0.5000  plane waves:   48344
 k-point 18 :   0.2500 0.2500 0.5000  plane waves:   48358
 k-point 19 :   0.5000 0.2500 0.5000  plane waves:   48376
 k-point 20 :  -0.2500 0.2500 0.5000  plane waves:   48408
 k-point 21 :   0.5000 0.5000 0.5000  plane waves:   48328

 maximum and minimum number of plane-waves per node :     48480    48328

 maximum number of plane-waves:     48480
 maximum index in each direction: 
   IXMAX=   22   IYMAX=   22   IZMAX=   22
   IXMIN=  -23   IYMIN=  -23   IZMIN=  -22


 serial   3D FFT for wavefunctions
 parallel 3D FFT for charge:
    minimum data exchange during FFTs selected (reduces bandwidth)


 total amount of memory used by VASP MPI-rank0   664114. kBytes
=======================================================================

   base      :      30000. kBytes
   nonl-proj :     491069. kBytes
   fftplans  :       4588. kBytes
   grid      :      69719. kBytes
   one-center:       1990. kBytes
   wavefun   :      66748. kBytes
 
     INWAV:  cpu time   41.5168: real time   41.7654
 Broyden mixing: mesh for mixing (old mesh)
   NGX = 45   NGY = 45   NGZ = 45
  (NGX  =192   NGY  =192   NGZ  =180)
  gives a total of  91125 points

 initial charge density was supplied:
 number of electron     688.0000480 magnetization      -0.0000000
 keeping initial charge density in first step


--------------------------------------------------------------------------------------------------------


 Maximum index for augmentation-charges          899 (set IRDMAX)


--------------------------------------------------------------------------------------------------------


 First call to EWALD:  gamma=   0.169
 Maximum number of real-space cells 3x 3x 3
 Maximum number of reciprocal cells 3x 3x 3

    FEWALD:  cpu time    0.0026: real time    0.0027


--------------------------------------- Iteration      1(   1)  ---------------------------------------


    POTLOK:  cpu time    0.2990: real time    0.3500
    SETDIJ:  cpu time    0.0144: real time    0.0145
     EDDAV:  cpu time  470.3495: real time  473.6447
 BZINTS: Fermi energy:  4.984461;688.000000 electrons
         Band energy:***********;  BLOECHL correction:  0.000000
       DOS:  cpu time    0.0237: real time    0.0238
    CHARGE:  cpu time    2.9106: real time    2.9293
    MIXING:  cpu time    0.0024: real time    0.0025
    --------------------------------------------
      LOOP:  cpu time  473.5998: real time  476.9648

 eigenvalue-minimisations  : 63488
 total energy-change (2. order) :-0.3280950E+03  (-0.1539200E-05)
 number of electron     688.0000480 magnetization      -0.0000000
 augmentation part      282.2195981 magnetization      -0.0000000

 Broyden mixing:
  rms(total) = 0.57241E-03    rms(broyden)= 0.57238E-03
  rms(prec ) = 0.69080E-03
  weight for this iteration     100.00

 Free energy of the ion-electron system (eV)
  ---------------------------------------------------
  alpha Z        PSCENC =      2355.65876024
  Ewald energy   TEWEN  =    -62464.20598667
  -Hartree energ DENC   =    -42955.69797263
  -exchange      EXHF   =         0.00000000
  -V(xc)+E(xc)   XCENC  =      3286.50347750
  PAW double counting   =    112276.89887817  -115970.90533495
  entropy T*S    EENTRO =         0.00000000
  eigenvalues    EBANDS =    -10876.41189463
  atomic energy  EATOM  =    114020.06510763
  Solvation  Ediel_sol  =         0.00000000
  ---------------------------------------------------
  free energy    TOTEN  =      -328.09496532 eV

  energy without entropy =     -328.09496532  energy(sigma->0) =     -328.09496532


--------------------------------------------------------------------------------------------------------




--------------------------------------- Iteration      1(   2)  ---------------------------------------


    POTLOK:  cpu time    0.1207: real time    0.1232
    SETDIJ:  cpu time    0.0128: real time    0.0128
     EDDAV:  cpu time  588.9005: real time  592.7371
 BZINTS: Fermi energy:  4.908222;688.000000 electrons
         Band energy:***********;  BLOECHL correction:  0.000000
       DOS:  cpu time    0.0196: real time    0.0197
    CHARGE:  cpu time    2.9102: real time    2.9284
    MIXING:  cpu time    0.0018: real time    0.0026
    --------------------------------------------
      LOOP:  cpu time  591.9655: real time  595.8238

 eigenvalue-minimisations  : 74240
 total energy-change (2. order) : 0.7604831E-06  (-0.1379788E-06)
 number of electron     688.0000480 magnetization      -0.0000000
 augmentation part      282.2198246 magnetization      -0.0000000

 Broyden mixing:
  rms(total) = 0.41110E-03    rms(broyden)= 0.41109E-03
  rms(prec ) = 0.48805E-03
  weight for this iteration     100.00

 eigenvalues of (default mixing * dielectric matrix)
  average eigenvalue GAMMA=   0.6249
  0.6249

 Free energy of the ion-electron system (eV)
  ---------------------------------------------------
  alpha Z        PSCENC =      2355.65876024
  Ewald energy   TEWEN  =    -62464.20598667
  -Hartree energ DENC   =    -42955.69948076
  -exchange      EXHF   =         0.00000000
  -V(xc)+E(xc)   XCENC  =      3286.50369353
  PAW double counting   =    112276.86565439  -115970.87072702
  entropy T*S    EENTRO =         0.00000000
  eigenvalues    EBANDS =    -10876.41198591
  atomic energy  EATOM  =    114020.06510763
  Solvation  Ediel_sol  =         0.00000000
  ---------------------------------------------------
  free energy    TOTEN  =      -328.09496456 eV

  energy without entropy =     -328.09496456  energy(sigma->0) =     -328.09496456


--------------------------------------------------------------------------------------------------------




--------------------------------------- Iteration      1(   3)  ---------------------------------------


    POTLOK:  cpu time    0.1191: real time    0.1227
    SETDIJ:  cpu time    0.0128: real time    0.0129
     EDDAV:  cpu time  462.6576: real time  465.7471
 BZINTS: Fermi energy:  4.856915;688.000000 electrons
         Band energy:***********;  BLOECHL correction:  0.000000
       DOS:  cpu time    0.0211: real time    0.0212
    CHARGE:  cpu time    2.9063: real time    2.9252
    MIXING:  cpu time    0.0014: real time    0.0014
    --------------------------------------------
      LOOP:  cpu time  465.7182: real time  468.8305

 eigenvalue-minimisations  : 64256
 total energy-change (2. order) : 0.2142770E-06  (-0.2208741E-06)
 number of electron     688.0000480 magnetization       0.0000000
 augmentation part      282.2196239 magnetization       0.0000000

 Broyden mixing:
  rms(total) = 0.51126E-03    rms(broyden)= 0.51125E-03
  rms(prec ) = 0.59267E-03
  weight for this iteration     100.00

 eigenvalues of (default mixing * dielectric matrix)
  average eigenvalue GAMMA=   1.0333
  1.7688  0.2979

 Free energy of the ion-electron system (eV)
  ---------------------------------------------------
  alpha Z        PSCENC =      2355.65876024
  Ewald energy   TEWEN  =    -62464.20598667
  -Hartree energ DENC   =    -42955.69283223
  -exchange      EXHF   =         0.00000000
  -V(xc)+E(xc)   XCENC  =      3286.50286272
  PAW double counting   =    112276.86361793  -115970.86922108
  entropy T*S    EENTRO =         0.00000000
  eigenvalues    EBANDS =    -10876.41727289
  atomic energy  EATOM  =    114020.06510763
  Solvation  Ediel_sol  =         0.00000000
  ---------------------------------------------------
  free energy    TOTEN  =      -328.09496435 eV

  energy without entropy =     -328.09496435  energy(sigma->0) =     -328.09496435


--------------------------------------------------------------------------------------------------------




--------------------------------------- Iteration      1(   4)  ---------------------------------------


    POTLOK:  cpu time    0.1190: real time    0.1226
    SETDIJ:  cpu time    0.0128: real time    0.0129
     EDDAV:  cpu time  533.0233: real time  536.5200
 BZINTS: Fermi energy:  5.007705;688.000000 electrons
         Band energy:***********;  BLOECHL correction:  0.000000
       DOS:  cpu time    0.0255: real time    0.0256
    CHARGE:  cpu time    2.9166: real time    2.9353
    MIXING:  cpu time    0.0014: real time    0.0014
    --------------------------------------------
      LOOP:  cpu time  536.0986: real time  539.6177

 eigenvalue-minimisations  : 69120
 total energy-change (2. order) : 0.1338776E-06  (-0.8715946E-07)
 number of electron     688.0000480 magnetization       0.0000000
 augmentation part      282.2195787 magnetization       0.0000000

 Broyden mixing:
  rms(total) = 0.10893E-03    rms(broyden)= 0.10892E-03
  rms(prec ) = 0.12587E-03
  weight for this iteration     100.00

 eigenvalues of (default mixing * dielectric matrix)
  average eigenvalue GAMMA=   0.9682
  1.9206  0.6389  0.3450

 Free energy of the ion-electron system (eV)
  ---------------------------------------------------
  alpha Z        PSCENC =      2355.65876024
  Ewald energy   TEWEN  =    -62464.20598667
  -Hartree energ DENC   =    -42955.70578400
  -exchange      EXHF   =         0.00000000
  -V(xc)+E(xc)   XCENC  =      3286.50352156
  PAW double counting   =    112276.87737913  -115970.88281358
  entropy T*S    EENTRO =         0.00000000
  eigenvalues    EBANDS =    -10876.40514853
  atomic energy  EATOM  =    114020.06510763
  Solvation  Ediel_sol  =         0.00000000
  ---------------------------------------------------
  free energy    TOTEN  =      -328.09496422 eV

  energy without entropy =     -328.09496422  energy(sigma->0) =     -328.09496422


--------------------------------------------------------------------------------------------------------




--------------------------------------- Iteration      1(   5)  ---------------------------------------


    POTLOK:  cpu time    0.1222: real time    0.1232
    SETDIJ:  cpu time    0.0126: real time    0.0127
     EDDAV:  cpu time  413.6872: real time  416.4786
 BZINTS: Fermi energy:  4.986845;688.000000 electrons
         Band energy:***********;  BLOECHL correction:  0.000000
       DOS:  cpu time    0.0232: real time    0.0233
    CHARGE:  cpu time    2.9081: real time    2.9282
    MIXING:  cpu time    0.0015: real time    0.0015
    --------------------------------------------
      LOOP:  cpu time  416.7548: real time  419.5674

 eigenvalue-minimisations  : 58112
 total energy-change (2. order) :-0.3620517E-07  (-0.1245599E-07)
 number of electron     688.0000480 magnetization      -0.0000000
 augmentation part      282.2197138 magnetization      -0.0000000

 Broyden mixing:
  rms(total) = 0.49779E-04    rms(broyden)= 0.49773E-04
  rms(prec ) = 0.53936E-04
  weight for this iteration     100.00

 eigenvalues of (default mixing * dielectric matrix)
  average eigenvalue GAMMA=   1.0346
  1.7944  1.3101  0.3431  0.6907

 Free energy of the ion-electron system (eV)
  ---------------------------------------------------
  alpha Z        PSCENC =      2355.65876024
  Ewald energy   TEWEN  =    -62464.20598667
  -Hartree energ DENC   =    -42955.69936920
  -exchange      EXHF   =         0.00000000
  -V(xc)+E(xc)   XCENC  =      3286.50347047
  PAW double counting   =    112276.85810419  -115970.86241536
  entropy T*S    EENTRO =         0.00000000
  eigenvalues    EBANDS =    -10876.41263556
  atomic energy  EATOM  =    114020.06510763
  Solvation  Ediel_sol  =         0.00000000
  ---------------------------------------------------
  free energy    TOTEN  =      -328.09496425 eV

  energy without entropy =     -328.09496425  energy(sigma->0) =     -328.09496425


--------------------------------------------------------------------------------------------------------




--------------------------------------- Iteration      1(   6)  ---------------------------------------


    POTLOK:  cpu time    0.1179: real time    0.1227
    SETDIJ:  cpu time    0.0126: real time    0.0127
     EDDAV:  cpu time  257.6511: real time  259.4826
 BZINTS: Fermi energy:  4.983390;688.000000 electrons
         Band energy:***********;  BLOECHL correction:  0.000000
       DOS:  cpu time    0.0230: real time    0.0231
    --------------------------------------------
      LOOP:  cpu time  257.8046: real time  259.6410

 eigenvalue-minimisations  : 39680
 total energy-change (2. order) :-0.8178176E-08  (-0.5834054E-09)
 number of electron     688.0000480 magnetization      -0.0000000
 augmentation part      282.2197138 magnetization      -0.0000000

 Free energy of the ion-electron system (eV)
  ---------------------------------------------------
  alpha Z        PSCENC =      2355.65876024
  Ewald energy   TEWEN  =    -62464.20598667
  -Hartree energ DENC   =    -42955.70111665
  -exchange      EXHF   =         0.00000000
  -V(xc)+E(xc)   XCENC  =      3286.50351547
  PAW double counting   =    112276.84551028  -115970.85031543
  entropy T*S    EENTRO =         0.00000000
  eigenvalues    EBANDS =    -10876.41043914
  atomic energy  EATOM  =    114020.06510763
  Solvation  Ediel_sol  =         0.00000000
  ---------------------------------------------------
  free energy    TOTEN  =      -328.09496426 eV

  energy without entropy =     -328.09496426  energy(sigma->0) =     -328.09496426


--------------------------------------------------------------------------------------------------------




 average (electrostatic) potential at core
  the test charge radii are     0.9698  0.8297  0.9500
  (the norm of the test charge is              1.0000)
       1 -86.6237       2 -86.6237       3 -86.6237       4 -86.6237       5 -86.6237
       6 -86.6237       7 -86.6237       8 -86.6237       9 -86.6237      10 -86.6237
      11 -86.6237      12 -86.6237      13 -86.6237      14 -86.6237      15 -86.6237
      16 -86.6237      17 -86.6237      18 -86.6237      19 -86.6237      20 -86.6237
      21 -86.6237      22 -86.6237      23 -86.6237      24 -86.6237      25 -86.6237
      26 -86.6237      27 -86.6237      28 -86.6237      29 -86.6237      30 -86.6237
      31 -86.6237      32 -86.6237      33 -80.7027      34 -80.7027      35 -80.7027
      36 -80.7027      37 -80.7027      38 -80.7027      39 -80.7027      40 -80.7027
      41 -80.7027      42 -80.7027      43 -80.7027      44 -80.7027      45 -80.7027
      46 -80.7027      47 -80.7027      48 -80.7027      49 -80.2299      50 -80.2299
      51 -80.2299      52 -80.2299      53 -80.2299      54 -80.2299      55 -80.2299
      56 -80.2299      57 -80.2299      58 -80.2299      59 -80.2299      60 -80.2299
      61 -80.2299      62 -80.2299      63 -80.2299      64 -80.2299
 
 
 
 E-fermi :   4.9834     XC(G=0): -10.4654     alpha+bet :-10.5442


 spin component 1

 k-point     1 :       0.0000    0.0000    0.0000
  band No.  band energies     occupation 
      1     -64.3136      1.00000
      2     -64.3136      1.00000
      3     -64.3135      1.00000
      4     -64.3135      1.00000
      5     -64.3135      1.00000
      6     -64.3135      1.00000
      7     -64.3135      1.00000
      8     -64.3135      1.00000
      9     -64.2820      1.00000
     10     -64.2820      1.00000
     11     -64.2820      1.00000
     12     -64.2820      1.00000
     13     -64.2820      1.00000
     14     -64.2820      1.00000
     15     -64.2820      1.00000
     16     -64.2820      1.00000
     17     -64.2793      1.00000
     18     -64.2793      1.00000
     19     -64.2793      1.00000
     20     -64.2793      1.00000
     21     -64.2793      1.00000
     22     -64.2793      1.00000
     23     -64.2793      1.00000
     24     -64.2793      1.00000
     25     -64.2791      1.00000
     26     -64.2791      1.00000
     27     -64.2791      1.00000
     28     -64.2791      1.00000
     29     -64.2791      1.00000
     30     -64.2791      1.00000
     31     -64.2791      1.00000
     32     -64.2791      1.00000
     33     -64.2662      1.00000
     34     -64.2662      1.00000
     35     -64.2662      1.00000
     36     -64.2662      1.00000
     37     -64.2662      1.00000
     38     -64.2662      1.00000
     39     -64.2662      1.00000
     40     -64.2662      1.00000
     41     -64.2591      1.00000
     42     -64.2591      1.00000
     43     -64.2591      1.00000
     44     -64.2591      1.00000
     45     -64.2591      1.00000
     46     -64.2591      1.00000
     47     -64.2591      1.00000
     48     -64.2591      1.00000
     49     -51.8813      1.00000
     50     -51.8813      1.00000
     51     -51.8813      1.00000
     52     -51.8813      1.00000
     53     -51.8813      1.00000
     54     -51.8813      1.00000
     55     -51.8813      1.00000
     56     -51.8813      1.00000
     57     -51.8564      1.00000
     58     -51.8564      1.00000
     59     -51.8564      1.00000
     60     -51.8564      1.00000
     61     -51.8564      1.00000
     62     -51.8564      1.00000
     63     -51.8564      1.00000
     64     -51.8564      1.00000
     65     -51.8480      1.00000
     66     -51.8480      1.00000
     67     -51.8480      1.00000
     68     -51.8480      1.00000
     69     -51.8480      1.00000
     70     -51.8480      1.00000
     71     -51.8480      1.00000
     72     -51.8480      1.00000
     73     -47.7309      1.00000
     74     -47.7309      1.00000
     75     -47.7308      1.00000
     76     -47.7308      1.00000
     77     -47.7308      1.00000
     78     -47.7308      1.00000
     79     -47.7308      1.00000
     80     -47.7308      1.00000
     81     -47.7293      1.00000
     82     -47.7293      1.00000
     83     -47.7293      1.00000
     84     -47.7293      1.00000
     85     -47.7293      1.00000
     86     -47.7293      1.00000
     87     -47.7293      1.00000
     88     -47.7293      1.00000
     89     -47.7270      1.00000
     90     -47.7270      1.00000
     91     -47.7270      1.00000
     92     -47.7270      1.00000
     93     -47.7270      1.00000
     94     -47.7270      1.00000
     95     -47.7270      1.00000
     96     -47.7270      1.00000
     97      -9.1118      1.00000
     98      -8.5021      1.00000
     99      -8.4999      1.00000
    100      -8.4999      1.00000
    101      -8.4998      1.00000
    102      -8.4998      1.00000
    103      -8.4786      1.00000
    104      -8.1509      1.00000
    105      -8.1499      1.00000
    106      -8.1382      1.00000
    107      -8.1382      1.00000
    108      -8.1382      1.00000
    109      -8.1382      1.00000
    110      -8.1279      1.00000
    111      -8.1234      1.00000
    112      -8.1179      1.00000
    113      -8.1173      1.00000
    114      -8.1173      1.00000
    115      -8.1173      1.00000
    116      -8.1173      1.00000
    117      -8.0936      1.00000
    118      -8.0846      1.00000
    119      -8.0637      1.00000
    120      -7.7730      1.00000
    121      -7.7670      1.00000
    122      -7.7653      1.00000
    123      -7.7589      1.00000
    124      -7.7558      1.00000
    125      -7.7558      1.00000
    126      -7.7556      1.00000
    127      -7.7556      1.00000
    128      -7.7529      1.00000
    129      -2.0704      1.00000
    130      -2.0520      1.00000
    131      -2.0520      1.00000
    132      -2.0494      1.00000
    133      -2.0494      1.00000
    134      -2.0248      1.00000
    135      -1.9805      1.00000
    136      -1.9657      1.00000
    137      -1.9492      1.00000
    138      -1.9038      1.00000
    139      -1.8927      1.00000
    140      -1.8859      1.00000
    141      -1.8859      1.00000
    142      -1.8840      1.00000
    143      -1.8840      1.00000
    144      -1.8730      1.00000
    145      -1.8675      1.00000
    146      -1.8446      1.00000
    147      -1.8446      1.00000
    148      -1.8430      1.00000
    149      -1.8430      1.00000
    150      -1.8215      1.00000
    151      -1.7982      1.00000
    152      -1.7982      1.00000
    153      -1.7976      1.00000
    154      -1.7935      1.00000
    155      -1.7935      1.00000
    156      -1.7923      1.00000
    157      -1.7919      1.00000
    158      -1.7766      1.00000
    159      -1.7650      1.00000
    160      -1.7547      1.00000
    161      -1.7547      1.00000
    162      -1.7530      1.00000
    163      -1.7530      1.00000
    164      -1.7479      1.00000
    165      -1.7466      1.00000
    166      -1.7433      1.00000
    167      -1.7084      1.00000
    168      -1.7077      1.00000
    169      -0.9786      1.00000
    170      -0.9377      1.00000
    171      -0.8728      1.00000
    172      -0.8398      1.00000
    173      -0.7464      1.00000
    174      -0.4983      1.00000
    175      -0.2390      1.00000
    176      -0.2390      1.00000
    177      -0.2374      1.00000
    178      -0.2374      1.00000
    179      -0.1937      1.00000
    180      -0.1923      1.00000
    181      -0.1252      1.00000
    182      -0.0336      1.00000
    183      -0.0336      1.00000
    184      -0.0304      1.00000
    185      -0.0304      1.00000
    186       0.0379      1.00000
    187       0.0390      1.00000
    188       0.0984      1.00000
    189       0.0984      1.00000
    190       0.0992      1.00000
    191       0.0992      1.00000
    192       0.1081      1.00000
    193       0.2002      1.00000
    194       0.2616      1.00000
    195       0.2616      1.00000
    196       0.2644      1.00000
    197       0.2644      1.00000
    198       0.2925      1.00000
    199       0.3194      1.00000
    200       0.6744      1.00000
    201       0.7192      1.00000
    202       0.7275      1.00000
    203       0.7580      1.00000
    204       0.7974      1.00000
    205       0.7974      1.00000
    206       0.8011      1.00000
    207       0.8011      1.00000
    208       0.8652      1.00000
    209       0.8652      1.00000
    210       0.8702      1.00000
    211       0.8702      1.00000
    212       1.0041      1.00000
    213       1.0041      1.00000
    214       1.0045      1.00000
    215       1.0045      1.00000
    216       1.0972      1.00000
    217       1.1311      1.00000
    218       1.1392      1.00000
    219       1.1450      1.00000
    220       1.1569      1.00000
    221       1.1725      1.00000
    222       1.1767      1.00000
    223       1.1767      1.00000
    224       1.1774      1.00000
    225       1.1774      1.00000
    226       1.1785      1.00000
    227       1.1903      1.00000
    228       1.2480      1.00000
    229       1.2500      1.00000
    230       1.2788      1.00000
    231       1.2788      1.00000
    232       1.2819      1.00000
    233       1.2819      1.00000
    234       1.3011      1.00000
    235       1.3174      1.00000
    236       1.3205      1.00000
    237       1.3864      1.00000
    238       1.4335      1.00000
    239       1.5521      1.00000
    240       1.5534      1.00000
    241       1.6070      1.00000
    242       1.7840      1.00000
    243       1.7840      1.00000
    244       1.7861      1.00000
    245       1.7861      1.00000
    246       1.8072      1.00000
    247       1.8941      1.00000
    248       1.9044      1.00000
    249       1.9269      1.00000
    250       1.9269      1.00000
    251       1.9320      1.00000
    252       1.9320      1.00000
    253       1.9512      1.00000
    254       2.0282      1.00000
    255       2.0401      1.00000
    256       2.0758      1.00000
    257       2.1465      1.00000
    258       2.1761      1.00000
    259       2.1761      1.00000
    260       2.1893      1.00000
    261       2.1915      1.00000
    262       2.1915      1.00000
    263       2.1966      1.00000
    264       2.2473      1.00000
    265       2.6187      1.00000
    266       2.7242      1.00000
    267       2.7504      1.00000
    268       2.7504      1.00000
    269       2.7560      1.00000
    270       2.7560      1.00000
    271       2.7687      1.00000
    272       2.7727      1.00000
    273       2.7751      1.00000
    274       2.7751      1.00000
    275       2.7758      1.00000
    276       2.7758      1.00000
    277       2.7991      1.00000
    278       2.8218      1.00000
    279       2.8247      1.00000
    280       2.8671      1.00000
    281       2.8959      1.00000
    282       2.9143      1.00000
    283       2.9143      1.00000
    284       2.9154      1.00000
    285       2.9154      1.00000
    286       2.9510      1.00000
    287       2.9885      1.00000
    288       3.0795      1.00000
    289       3.0980      1.00000
    290       3.1169      1.00000
    291       3.1586      1.00000
    292       3.2016      1.00000
    293       3.2016      1.00000
    294       3.2053      1.00000
    295       3.2053      1.00000
    296       3.2196      1.00000
    297       3.2263      1.00000
    298       3.2492      1.00000
    299       3.2856      1.00000
    300       3.3835      1.00000
    301       3.3835      1.00000
    302       3.3967      1.00000
    303       3.3967      1.00000
    304       3.4572      1.00000
    305       3.4942      1.00000
    306       3.5442      1.00000
    307       3.5442      1.00000
    308       3.5447      1.00000
    309       3.5447      1.00000
    310       3.6159      1.00000
    311       3.6486      1.00000
    312       3.6486      1.00000
    313       3.6510      1.00000
    314       3.6510      1.00000
    315       3.6629      1.00000
    316       3.7440      1.00000
    317       3.7683      1.00000
    318       3.8640      1.00000
    319       4.0061      1.00000
    320       4.0563      1.00000
    321       4.0563      1.00000
    322       4.0639      1.00000
    323       4.0639      1.00000
    324       4.0793      1.00000
    325       4.1114      1.00000
    326       4.1115      1.00000
    327       4.1180      1.00000
    328       4.1180      1.00000
    329       4.1182      1.00000
    330       4.1393      1.00000
    331       4.1393      1.00000
    332       4.2220      1.00000
    333       4.2311      1.00000
    334       4.2769      1.00000
    335       4.2940      1.00000
    336       4.3607      1.00000
    337       4.6725      1.00000
    338       4.6790      1.00000
    339       4.6790      1.00000
    340       4.6858      1.00000
    341       4.6858      1.00000
    342       4.7036      1.00000
    343       4.7627      1.00000
    344       4.8163      1.00000
    345       5.7176      0.00000
    346       5.7225      0.00000
    347       5.7225      0.00000
    348       5.7239      0.00000
    349       5.7324      0.00000
    350       5.7324      0.00000
    351       5.7450      0.00000
    352       5.8641      0.00000
    353       5.9127      0.00000
    354       5.9235      0.00000
    355       5.9395      0.00000
    356       5.9395      0.00000
    357       5.9607      0.00000
    358       5.9611      0.00000
    359       5.9611      0.00000
    360       6.0171      0.00000
    361       6.0171      0.00000
    362       6.0230      0.00000
    363       6.0327      0.00000
    364       6.0327      0.00000
    365       6.1933      0.00000
    366       6.1933      0.00000
    367       6.1947      0.00000
    368       6.1967      0.00000
    369       6.1967      0.00000
    370       6.1984      0.00000
    371       6.2254      0.00000
    372       6.2394      0.00000
    373       6.2894      0.00000
    374       6.3088      0.00000
    375       6.3519      0.00000
    376       6.4175      0.00000
    377       6.4257      0.00000
    378       6.4570      0.00000
    379       6.4570      0.00000
    380       6.4584      0.00000
    381       6.4584      0.00000
    382       6.5449      0.00000
    383       6.7037      0.00000
    384       6.7414      0.00000
    385       7.6836      0.00000
    386       8.7757      0.00000
    387       8.8065      0.00000
    388       8.8092      0.00000
    389       8.9995      0.00000
    390       9.1393      0.00000
    391       9.1987      0.00000
    392       9.2960      0.00000
    393       9.3142      0.00000
    394       9.4380      0.00000
    395       9.4380      0.00000
    396       9.4383      0.00000
    397       9.4383      0.00000
    398       9.5591      0.00000
    399      10.1122      0.00000
    400      10.1210      0.00000
    401      10.1753      0.00000
    402      10.3782      0.00000
    403      10.4566      0.00000
    404      10.5496      0.00000
    405      10.6192      0.00000
    406      10.6192      0.00000
    407      10.6195      0.00000
    408      10.6195      0.00000
    409      10.6686      0.00000
    410      10.6686      0.00000
    411      10.6696      0.00000
    412      10.6696      0.00000
    413      10.7854      0.00000
    414      10.7854      0.00000
    415      10.7943      0.00000
    416      10.7943      0.00000
    417      10.8684      0.00000
    418      10.8811      0.00000
    419      10.8989      0.00000
    420      10.8989      0.00000
    421      10.9008      0.00000
    422      10.9144      0.00000
    423      10.9144      0.00000
    424      10.9771      0.00000
    425      11.0463      0.00000
    426      11.6746      0.00000
    427      11.6831      0.00000
    428      11.6950      0.00000
    429      11.7168      0.00000
    430      11.7168      0.00000
    431      11.7192      0.00000
    432      11.7192      0.00000
    433      11.8280      0.00000
    434      11.8486      0.00000
    435      11.8486      0.00000
    436      11.8502      0.00000
    437      11.8502      0.00000
    438      11.8646      0.00000
    439      11.9050      0.00000
    440      11.9599      0.00000
    441      12.1411      0.00000
    442      12.1878      0.00000
    443      12.1979      0.00000
    444      12.2014      0.00000
    445      12.2635      0.00000
    446      12.2959      0.00000
    447      12.2959      0.00000
[...]
   -.422E+02 0.145E+00 0.538E+01   0.430E+02 -.139E+00 -.543E+01   -.862E+00 -.663E-02 0.537E-01   -.419E-04 -.907E-05 -.736E-05
   -.422E+02 0.145E+00 0.538E+01   0.430E+02 -.139E+00 -.543E+01   -.862E+00 -.663E-02 0.537E-01   -.419E-04 -.907E-05 -.736E-05
   -.422E+02 0.145E+00 0.538E+01   0.430E+02 -.139E+00 -.543E+01   -.862E+00 -.663E-02 0.537E-01   -.419E-04 -.907E-05 -.736E-05
   -.422E+02 0.145E+00 0.538E+01   0.430E+02 -.139E+00 -.543E+01   -.862E+00 -.663E-02 0.537E-01   -.419E-04 -.907E-05 -.736E-05
   0.422E+02 -.145E+00 0.538E+01   -.430E+02 0.139E+00 -.543E+01   0.862E+00 0.663E-02 0.537E-01   0.419E-04 0.907E-05 -.736E-05
   0.422E+02 -.145E+00 0.538E+01   -.430E+02 0.139E+00 -.543E+01   0.862E+00 0.663E-02 0.537E-01   0.419E-04 0.907E-05 -.736E-05
   0.422E+02 -.145E+00 0.538E+01   -.430E+02 0.139E+00 -.543E+01   0.862E+00 0.663E-02 0.537E-01   0.419E-04 0.907E-05 -.736E-05
   0.422E+02 -.145E+00 0.538E+01   -.430E+02 0.139E+00 -.543E+01   0.862E+00 0.663E-02 0.537E-01   0.419E-04 0.907E-05 -.736E-05
   0.145E+00 -.422E+02 0.538E+01   -.139E+00 0.430E+02 -.543E+01   -.663E-02 -.862E+00 0.537E-01   -.907E-05 -.419E-04 -.736E-05
   0.145E+00 -.422E+02 0.538E+01   -.139E+00 0.430E+02 -.543E+01   -.663E-02 -.862E+00 0.537E-01   -.907E-05 -.419E-04 -.736E-05
   0.145E+00 -.422E+02 0.538E+01   -.139E+00 0.430E+02 -.543E+01   -.663E-02 -.862E+00 0.537E-01   -.907E-05 -.419E-04 -.736E-05
   0.145E+00 -.422E+02 0.538E+01   -.139E+00 0.430E+02 -.543E+01   -.663E-02 -.862E+00 0.537E-01   -.907E-05 -.419E-04 -.736E-05
   -.145E+00 0.422E+02 0.538E+01   0.139E+00 -.430E+02 -.543E+01   0.663E-02 0.862E+00 0.537E-01   0.907E-05 0.419E-04 -.736E-05
   -.145E+00 0.422E+02 0.538E+01   0.139E+00 -.430E+02 -.543E+01   0.663E-02 0.862E+00 0.537E-01   0.907E-05 0.419E-04 -.736E-05
   -.145E+00 0.422E+02 0.538E+01   0.139E+00 -.430E+02 -.543E+01   0.663E-02 0.862E+00 0.537E-01   0.907E-05 0.419E-04 -.736E-05
   -.145E+00 0.422E+02 0.538E+01   0.139E+00 -.430E+02 -.543E+01   0.663E-02 0.862E+00 0.537E-01   0.907E-05 0.419E-04 -.736E-05
   -.155E-06 0.178E-07 -.632E+01   0.289E-14 0.568E-13 0.606E+01   -.807E-19 -.136E-19 0.257E+00   0.283E-11 -.891E-11 -.383E-03
   -.155E-06 0.178E-07 -.632E+01   0.633E-13 0.000E+00 0.606E+01   0.889E-20 -.136E-19 0.257E+00   0.996E-12 -.755E-11 -.383E-03
   -.155E-06 0.178E-07 -.632E+01   0.313E-13 0.000E+00 0.606E+01   -.953E-20 0.000E+00 0.257E+00   -.642E-11 0.813E-11 -.383E-03
   -.155E-06 0.177E-07 -.632E+01   0.349E-13 0.000E+00 0.606E+01   0.214E-19 0.678E-19 0.257E+00   0.954E-11 0.107E-10 -.383E-03
   0.178E-07 -.155E-06 -.632E+01   0.284E-13 0.171E-12 0.606E+01   -.130E-18 0.813E-19 0.257E+00   -.249E-11 -.958E-11 -.383E-03
   0.178E-07 -.155E-06 -.632E+01   0.568E-13 0.171E-12 0.606E+01   -.124E-19 0.352E-19 0.257E+00   0.148E-11 -.174E-10 -.383E-03
   0.178E-07 -.155E-06 -.632E+01   0.284E-13 0.227E-12 0.606E+01   0.206E-18 -.542E-19 0.257E+00   -.545E-11 0.996E-11 -.383E-03
   0.178E-07 -.155E-06 -.632E+01   0.853E-13 0.171E-12 0.606E+01   -.415E-19 -.762E-20 0.257E+00   0.369E-12 0.272E-10 -.383E-03
   -.155E-06 0.177E-07 -.632E+01   0.114E-12 -.155E-13 0.606E+01   0.904E-19 0.122E-18 0.257E+00   -.466E-11 0.275E-12 -.383E-03
   -.155E-06 0.178E-07 -.632E+01   0.199E-12 0.413E-13 0.606E+01   0.987E-19 -.122E-18 0.257E+00   0.705E-11 -.142E-10 -.383E-03
   -.155E-06 0.178E-07 -.632E+01   0.142E-12 0.475E-13 0.606E+01   -.419E-19 -.271E-19 0.257E+00   -.556E-11 0.696E-11 -.383E-03
   -.155E-06 0.178E-07 -.632E+01   0.171E-12 0.475E-13 0.606E+01   -.379E-19 0.136E-19 0.257E+00   0.903E-11 0.115E-10 -.383E-03
   0.178E-07 -.155E-06 -.632E+01   0.179E-12 0.162E-12 0.606E+01   -.875E-19 -.474E-19 0.257E+00   0.555E-11 0.231E-11 -.383E-03
   0.178E-07 -.155E-06 -.632E+01   0.182E-12 0.162E-12 0.606E+01   -.400E-19 0.847E-20 0.257E+00   -.605E-11 -.324E-12 -.383E-03
   0.178E-07 -.155E-06 -.632E+01   0.797E-13 0.225E-12 0.606E+01   -.343E-19 -.292E-19 0.257E+00   0.406E-11 0.131E-12 -.383E-03
   0.178E-07 -.155E-06 -.632E+01   0.196E-12 0.168E-12 0.606E+01   0.906E-19 0.487E-19 0.257E+00   -.876E-11 0.340E-11 -.383E-03
   0.111E-07 -.477E-07 -.510E+01   -.118E-12 -.199E-12 0.480E+01   0.261E-18 -.249E-17 0.307E+00   -.705E-11 -.269E-11 0.134E-04
   0.111E-07 -.477E-07 -.510E+01   -.737E-13 -.199E-12 0.480E+01   0.178E-18 0.173E-17 0.307E+00   0.226E-11 -.466E-11 0.134E-04
   0.111E-07 -.477E-07 -.510E+01   -.122E-12 -.156E-12 0.480E+01   0.588E-18 0.163E-17 0.307E+00   0.373E-11 0.275E-11 0.134E-04
   0.111E-07 -.477E-07 -.510E+01   -.773E-13 -.156E-12 0.480E+01   -.136E-19 -.325E-18 0.307E+00   -.502E-11 -.886E-12 0.134E-04
   -.477E-07 0.111E-07 -.510E+01   -.203E-12 -.114E-12 0.480E+01   0.195E-18 0.542E-18 0.307E+00   -.882E-12 0.605E-11 0.134E-04
   -.477E-07 0.111E-07 -.510E+01   -.167E-12 -.171E-12 0.480E+01   0.932E-20 -.184E-17 0.307E+00   0.369E-12 0.414E-11 0.134E-04
   -.477E-07 0.111E-07 -.510E+01   -.167E-12 -.185E-12 0.480E+01   -.115E-17 -.325E-18 0.307E+00   0.104E-12 -.312E-11 0.134E-04
   -.477E-07 0.111E-07 -.510E+01   -.160E-12 -.185E-12 0.480E+01   0.401E-18 0.130E-17 0.307E+00   0.382E-11 -.127E-10 0.134E-04
   0.111E-07 -.477E-07 -.510E+01   -.110E-12 -.148E-12 0.480E+01   -.123E-17 -.759E-18 0.307E+00   0.424E-12 0.275E-11 0.134E-04
   0.111E-07 -.477E-07 -.510E+01   -.391E-13 -.205E-12 0.480E+01   0.162E-17 -.434E-18 0.307E+00   -.588E-11 0.878E-11 0.134E-04
   0.111E-07 -.477E-07 -.510E+01   -.853E-13 -.109E-12 0.480E+01   -.124E-18 0.260E-17 0.307E+00   0.101E-11 -.585E-11 0.134E-04
   0.111E-07 -.477E-07 -.510E+01   -.568E-13 -.170E-12 0.480E+01   -.151E-17 -.336E-17 0.307E+00   -.291E-11 -.100E-10 0.134E-04
   -.477E-07 0.111E-07 -.510E+01   -.135E-12 -.128E-12 0.480E+01   -.926E-18 0.108E-18 0.307E+00   -.248E-11 -.232E-11 0.134E-04
   -.477E-07 0.110E-07 -.510E+01   -.129E-12 -.128E-12 0.480E+01   0.147E-17 0.976E-18 0.307E+00   0.422E-11 0.857E-13 0.134E-04
   -.477E-07 0.111E-07 -.510E+01   -.158E-12 -.650E-13 0.480E+01   0.194E-18 0.163E-17 0.307E+00   -.913E-11 0.790E-12 0.134E-04
   -.477E-07 0.111E-07 -.510E+01   -.153E-12 -.650E-13 0.480E+01   0.823E-18 -.141E-17 0.307E+00   0.109E-10 0.261E-11 0.134E-04
 -----------------------------------------------------------------------------------------------
   -.887E-06 -.887E-06 -.107E+02   -.217E-12 0.174E-12 0.121E-12   -.659E-15 0.444E-15 0.107E+02   -.452E-11 0.726E-11 -.614E-02
 
 
 POSITION                                       TOTAL-FORCE (eV/Angst)
 -----------------------------------------------------------------------------------
      1.33764      1.32663      1.29185        -0.000003      0.000183      0.000049
      6.59361      1.37245      1.29185        -0.000003      0.000183      0.000049
      1.38347      6.58259      1.29185        -0.000003      0.000183      0.000049
      6.63943      6.62842      1.29185        -0.000003      0.000183      0.000049
      3.96415      3.97517      1.29185         0.000003     -0.000183      0.000049
      9.22012      4.02099      1.29185         0.000003     -0.000183      0.000049
      4.00998      9.23113      1.29185         0.000003     -0.000183      0.000049
      9.26595      9.27696      1.29185         0.000003     -0.000183      0.000049
      1.34718      3.94124      9.10400        -0.000183      0.000003      0.000049
      6.60315      3.98707      9.10400        -0.000183      0.000003      0.000049
      1.39301      9.19721      9.10400        -0.000183      0.000003      0.000049
      6.64898      9.24303      9.10400        -0.000183      0.000003      0.000049
      3.95461      1.36055      9.10400         0.000183     -0.000003      0.000049
      9.21058      1.40638      9.10400         0.000183     -0.000003      0.000049
      4.00044      6.61652      9.10400         0.000183     -0.000003      0.000049
      9.25640      6.66234      9.10400         0.000183     -0.000003      0.000049
      1.31326      1.32427      6.49995         0.000003     -0.000183      0.000049
      6.56922      1.37010      6.49995         0.000003     -0.000183      0.000049
      1.35908      6.58024      6.49995         0.000003     -0.000183      0.000049
      6.61505      6.62606      6.49995         0.000003     -0.000183      0.000049
      3.98854      3.97752      6.49995        -0.000003      0.000183      0.000049
      9.24450      4.02335      6.49995        -0.000003      0.000183      0.000049
      4.03436      9.23349      6.49995        -0.000003      0.000183      0.000049
      9.29033      9.27932      6.49995        -0.000003      0.000183      0.000049
      3.95225      1.33617      3.89590        -0.000183      0.000003      0.000049
      9.20822      1.38200      3.89590        -0.000183      0.000003      0.000049
      3.99808      6.59214      3.89590        -0.000183      0.000003      0.000049
      9.25405      6.63796      3.89590        -0.000183      0.000003      0.000049
      1.34954      3.96562      3.89590         0.000183     -0.000003      0.000049
      6.60551      4.01145      3.89590         0.000183     -0.000003      0.000049
      1.39537      9.22159      3.89590         0.000183     -0.000003      0.000049
      6.65133      9.26742      3.89590         0.000183     -0.000003      0.000049
      0.00000      0.00000      5.21690         0.000000     -0.000000     -0.000606
      5.25597      0.04583      5.21690         0.000000     -0.000000     -0.000606
      0.04583      5.25597      5.21690         0.000000     -0.000000     -0.000606
      5.30179      5.30179      5.21690         0.000000     -0.000000     -0.000606
      2.62798      0.02291      2.61285         0.000000     -0.000000     -0.000606
      7.88395      0.06874      2.61285         0.000000     -0.000000     -0.000606
      2.67381      5.27888      2.61285         0.000000     -0.000000     -0.000606
      7.92978      5.32471      2.61285         0.000000     -0.000000     -0.000606
      2.65090      2.65090      0.00880         0.000000     -0.000000     -0.000606
      7.90686      2.69672      0.00880         0.000000     -0.000000     -0.000606
      2.69672      7.90686      0.00880         0.000000     -0.000000     -0.000606
      7.95269      7.95269      0.00880         0.000000     -0.000000     -0.000606
      0.02291      2.62798      7.82095         0.000000     -0.000000     -0.000606
      5.27888      2.67381      7.82095         0.000000     -0.000000     -0.000606
      0.06874      7.88395      7.82095         0.000000     -0.000000     -0.000606
      5.32471      7.92978      7.82095         0.000000     -0.000000     -0.000606
      0.00000      0.00000      0.01155         0.000000     -0.000000      0.000509
      5.25597      0.04583      0.01155         0.000000     -0.000000      0.000509
      0.04583      5.25597      0.01155         0.000000     -0.000000      0.000509
      5.30179      5.30179      0.01155         0.000000     -0.000000      0.000509
      2.62798      0.02291      7.82370         0.000000     -0.000000      0.000509
      7.88395      0.06874      7.82370         0.000000     -0.000000      0.000509
      2.67381      5.27888      7.82370         0.000000     -0.000000      0.000509
      7.92978      5.32471      7.82370         0.000000     -0.000000      0.000509
      2.65090      2.65090      5.21965         0.000000     -0.000000      0.000509
      7.90686      2.69672      5.21965         0.000000     -0.000000      0.000509
      2.69672      7.90686      5.21965         0.000000     -0.000000      0.000509
      7.95269      7.95269      5.21965         0.000000     -0.000000      0.000509
      0.02291      2.62798      2.61560         0.000000     -0.000000      0.000509
      5.27888      2.67381      2.61560         0.000000     -0.000000      0.000509
      0.06874      7.88395      2.61560         0.000000     -0.000000      0.000509
      5.32471      7.92978      2.61560         0.000000     -0.000000      0.000509
 -----------------------------------------------------------------------------------
    total drift:                               -0.000001     -0.000001     -0.015721


--------------------------------------------------------------------------------------------------------



  FREE ENERGIE OF THE ION-ELECTRON SYSTEM (eV)
  ---------------------------------------------------
  free  energy   TOTEN  =      -328.09496426 eV

  energy  without entropy=     -328.09496426  energy(sigma->0) =     -328.09496426
 


--------------------------------------------------------------------------------------------------------


    POTLOK:  cpu time    0.1327: real time    0.1336


--------------------------------------------------------------------------------------------------------


 writing wavefunctions
     LOOP+:  cpu time 3305.2659: real time 3816.8905
    4ORBIT:  cpu time    0.0000: real time    0.0000
 


 total charge     
 
# of ion       s       p       d       tot
------------------------------------------
    1        1.313   2.410   0.000   3.724
    2        1.313   2.410   0.000   3.724
    3        1.313   2.410   0.000   3.724
    4        1.313   2.410   0.000   3.724
    5        1.313   2.410   0.000   3.723
    6        1.313   2.410   0.000   3.723
    7        1.313   2.410   0.000   3.723
    8        1.313   2.410   0.000   3.723
    9        1.313   2.410   0.000   3.724
   10        1.313   2.410   0.000   3.724
   11        1.313   2.410   0.000   3.724
   12        1.313   2.410   0.000   3.724
   13        1.313   2.410   0.000   3.724
   14        1.313   2.410   0.000   3.724
   15        1.313   2.410   0.000   3.724
   16        1.313   2.410   0.000   3.724
   17        1.313   2.410   0.000   3.723
   18        1.313   2.410   0.000   3.723
   19        1.313   2.410   0.000   3.723
   20        1.313   2.410   0.000   3.723
   21        1.313   2.410   0.000   3.724
   22        1.313   2.410   0.000   3.724
   23        1.313   2.410   0.000   3.724
   24        1.313   2.410   0.000   3.724
   25        1.313   2.410   0.000   3.724
   26        1.313   2.410   0.000   3.724
   27        1.313   2.410   0.000   3.724
   28        1.313   2.410   0.000   3.724
   29        1.313   2.410   0.000   3.724
   30        1.313   2.410   0.000   3.724
   31        1.313   2.410   0.000   3.724
   32        1.313   2.410   0.000   3.724
   33        0.260   6.202   8.916  15.378
   34        0.260   6.202   8.916  15.378
   35        0.260   6.202   8.916  15.378
   36        0.260   6.202   8.916  15.378
   37        0.260   6.202   8.917  15.378
   38        0.260   6.202   8.917  15.378
   39        0.260   6.202   8.917  15.378
   40        0.260   6.202   8.917  15.378
   41        0.260   6.202   8.916  15.378
   42        0.260   6.202   8.916  15.378
   43        0.260   6.202   8.916  15.378
   44        0.260   6.202   8.916  15.378
   45        0.260   6.202   8.917  15.378
   46        0.260   6.202   8.917  15.378
   47        0.260   6.202   8.917  15.378
   48        0.260   6.202   8.917  15.378
   49        0.350   6.351   5.820  12.521
   50        0.350   6.351   5.820  12.521
   51        0.350   6.351   5.820  12.521
   52        0.350   6.351   5.820  12.521
   53        0.350   6.351   5.820  12.521
   54        0.350   6.351   5.820  12.521
   55        0.350   6.351   5.820  12.521
   56        0.350   6.351   5.820  12.521
   57        0.350   6.351   5.820  12.521
   58        0.350   6.351   5.820  12.521
   59        0.350   6.351   5.820  12.521
   60        0.350   6.351   5.820  12.521
   61        0.350   6.351   5.820  12.521
   62        0.350   6.351   5.820  12.521
   63        0.350   6.351   5.820  12.521
   64        0.350   6.351   5.820  12.521
--------------------------------------------------
tot         51.790 277.976 235.779 565.545
 


 magnetization (x)
 
# of ion       s       p       d       tot
------------------------------------------
    1       -0.000  -0.004   0.000  -0.004
    2       -0.000  -0.004   0.000  -0.004
    3       -0.000  -0.004   0.000  -0.004
    4       -0.000  -0.004   0.000  -0.004
    5       -0.000  -0.004   0.000  -0.004
    6       -0.000  -0.004   0.000  -0.004
    7       -0.000  -0.004   0.000  -0.004
    8       -0.000  -0.004   0.000  -0.004
    9        0.000   0.004   0.000   0.004
   10        0.000   0.004   0.000   0.004
   11        0.000   0.004   0.000   0.004
   12        0.000   0.004   0.000   0.004
   13        0.000   0.004   0.000   0.004
   14        0.000   0.004   0.000   0.004
   15        0.000   0.004   0.000   0.004
   16        0.000   0.004   0.000   0.004
   17       -0.000  -0.004   0.000  -0.004
   18       -0.000  -0.004   0.000  -0.004
   19       -0.000  -0.004   0.000  -0.004
   20       -0.000  -0.004   0.000  -0.004
   21       -0.000  -0.004   0.000  -0.004
   22       -0.000  -0.004   0.000  -0.004
   23       -0.000  -0.004   0.000  -0.004
   24       -0.000  -0.004   0.000  -0.004
   25        0.000   0.004   0.000   0.004
   26        0.000   0.004   0.000   0.004
   27        0.000   0.004   0.000   0.004
   28        0.000   0.004   0.000   0.004
   29        0.000   0.004   0.000   0.004
   30        0.000   0.004   0.000   0.004
   31        0.000   0.004   0.000   0.004
   32        0.000   0.004   0.000   0.004
   33        0.000   0.000  -0.001   0.000
   34        0.000   0.000  -0.001   0.000
   35        0.000   0.000  -0.001   0.000
   36        0.000   0.000  -0.001   0.000
   37       -0.000  -0.000   0.001  -0.000
   38       -0.000  -0.000   0.001  -0.000
   39       -0.000  -0.000   0.001  -0.000
   40       -0.000  -0.000   0.001  -0.000
   41        0.000   0.000  -0.001   0.000
   42        0.000   0.000  -0.001   0.000
   43        0.000   0.000  -0.001   0.000
   44        0.000   0.000  -0.001   0.000
   45       -0.000  -0.000   0.001  -0.000
   46       -0.000  -0.000   0.001  -0.000
   47       -0.000  -0.000   0.001  -0.000
   48       -0.000  -0.000   0.001  -0.000
   49        0.020   0.054   3.671   3.744
   50        0.020   0.054   3.671   3.744
   51        0.020   0.054   3.671   3.744
   52        0.020   0.054   3.671   3.744
   53       -0.020  -0.054  -3.671  -3.744
   54       -0.020  -0.054  -3.671  -3.744
   55       -0.020  -0.054  -3.671  -3.744
   56       -0.020  -0.054  -3.671  -3.744
   57        0.020   0.054   3.671   3.744
   58        0.020   0.054   3.671   3.744
   59        0.020   0.054   3.671   3.744
   60        0.020   0.054   3.671   3.744
   61       -0.020  -0.054  -3.671  -3.744
   62       -0.020  -0.054  -3.671  -3.744
   63       -0.020  -0.054  -3.671  -3.744
   64       -0.020  -0.054  -3.671  -3.744
--------------------------------------------------
tot         -0.000   0.000  -0.000  -0.000
 
 BZINTS: Fermi energy:  4.983390;688.000000 electrons
         Band energy:***********;  BLOECHL correction:  0.000000

 total amount of memory used by VASP MPI-rank0   664114. kBytes
=======================================================================

   base      :      30000. kBytes
   nonl-proj :     491069. kBytes
   fftplans  :       4588. kBytes
   grid      :      69719. kBytes
   one-center:       1990. kBytes
   wavefun   :      66748. kBytes
 
  
  
 General timing and accounting informations for this job:
 ========================================================
  
                  Total CPU time used (sec):     3414.509
                            User time (sec):     3393.079
                          System time (sec):       21.429
                         Elapsed time (sec):     3928.049
  
                   Maximum memory used (kb):     1161708.
                   Average memory used (kb):           0.
  
                          Minor page faults:       613174
                          Major page faults:         4934
                 Voluntary context switches:         7447
