       N       E                     dE             d eps       ncg     rms          ort
SDA:   1    -0.820094789992E+02   -0.82009E+02    0.00000E+00  7488   0.148E-04 0.000E+00
CGA:   2    -0.820094839228E+02   -0.49236E-05   -0.23504E-06  7488   0.887E-05 0.113E-04
CGA:   3    -0.820094871305E+02   -0.32077E-05   -0.12338E-06  7488   0.609E-05 0.728E-05
CGA:   4    -0.820094896813E+02   -0.25508E-05   -0.80391E-07  7488   0.460E-05 0.526E-05
CGA:   5    -0.820094918436E+02   -0.21624E-05   -0.58968E-07  7488   0.362E-05 0.404E-05
CGA:   6    -0.820094937713E+02   -0.19276E-05   -0.45100E-07  7488   0.299E-05 0.327E-05
CGA:   7    -0.820094956389E+02   -0.18676E-05   -0.36171E-07  7488   0.253E-05 0.273E-05
CGA:   8    -0.820094974935E+02   -0.18547E-05   -0.28972E-07  7488   0.220E-05 0.235E-05
CGA:   9    -0.820094991607E+02   -0.16671E-05   -0.21943E-07  7488   0.194E-05 0.205E-05
CGA:  10    -0.820095005220E+02   -0.13614E-05   -0.16403E-07  7488   0.177E-05 0.184E-05
CGA:  11    -0.820095016008E+02   -0.10788E-05   -0.13475E-07  7488   0.163E-05 0.169E-05
CGA:  12    -0.820095024382E+02   -0.83732E-06   -0.11964E-07  7488   0.152E-05 0.157E-05
CGA:  13    -0.820095031465E+02   -0.70837E-06   -0.12531E-07  7488   0.141E-05 0.146E-05
CGA:  14    -0.820095039157E+02   -0.76912E-06   -0.18509E-07  7488   0.125E-05 0.132E-05
CGA:  15    -0.820095046344E+02   -0.71872E-06    0.40875E-07  7488   0.903E-06 0.242E-07
CGA:  16    -0.820095048238E+02   -0.18945E-06   -0.22340E-08  7488   0.824E-06 0.864E-06
CGA:  17    -0.820095049928E+02   -0.16900E-06   -0.13925E-08  7488   0.751E-06 0.786E-06
CGA:  18    -0.820095051435E+02   -0.15069E-06   -0.12364E-08  7488   0.692E-06 0.715E-06
CGA:  19    -0.820095052864E+02   -0.14288E-06   -0.11791E-08  7488   0.656E-06 0.672E-06
CGA:  20    -0.820095054225E+02   -0.13607E-06   -0.11626E-08  7488   0.627E-06 0.640E-06
CGA:  21    -0.820095055542E+02   -0.13173E-06   -0.11848E-08  7488   0.479E-06 0.520E-06
CGA:  22    -0.820095056597E+02   -0.10553E-06   -0.78982E-09  7488   0.448E-06 0.457E-06
CGA:  23    -0.820095057605E+02   -0.10083E-06   -0.76473E-09  7488   0.435E-06 0.438E-06
CGA:  24    -0.820095058654E+02   -0.10484E-06   -0.85621E-09  7488   0.420E-06 0.426E-06
CGA:  25    -0.820095059707E+02   -0.10527E-06   -0.93680E-09  7488   0.365E-06 0.382E-06
CGA:  26    -0.820095060692E+02   -0.98509E-07   -0.86839E-09  7488   0.351E-06 0.355E-06
CGA:  27    -0.820095061675E+02   -0.98338E-07   -0.97837E-09  7488   0.326E-06 0.335E-06
CGA:  28    -0.820095062806E+02   -0.11306E-06   -0.12794E-08  7488   0.310E-06 0.313E-06
CGA:  29    -0.820095063920E+02   -0.11142E-06   -0.15862E-08  7488   0.289E-06 0.292E-06
CGA:  30    -0.820095065387E+02   -0.14676E-06   -0.30864E-08  7488   0.267E-06 0.228E-06
CGA:  31    -0.820095065929E+02   -0.54170E-07   -0.17958E-08  7488   0.355E-06 0.123E-06
CGA:  32    -0.820095066104E+02   -0.17451E-07   -0.60519E-09  7488   0.244E-06 0.453E-06
CGA:  33    -0.820095066439E+02   -0.33539E-07   -0.23747E-08  7488   0.379E-06 0.408E-07
CGA:  34    -0.820095066570E+02   -0.13075E-07   -0.52350E-09  7488   0.329E-06 0.404E-06
CGA:  35    -0.820095066635E+02   -0.64829E-08   -0.52058E-09  7488   0.243E-06 0.265E-06
   1 F= -.82009507E+02 E0= -.82009507E+02  d E =0.000000E+00  mag=     0.0000    -0.0000    -0.0000
