 vasp.5.4.4.18Apr17-6-g9f103f2a35 (build Oct 30 2023 17:49:44) complex          
  
 executed on             LinuxIFC date 2024.12.09  12:34:55
 running on  256 total cores
 distrk:  each k-point on  256 cores,    1 groups
 distr:  one band on NCORES_PER_BAND=  32 cores,    8 groups


--------------------------------------------------------------------------------------------------------


 INCAR:
 POTCAR:    PAW_PBE S 06Sep2000                   
 POTCAR:     PAW_PBE Cu_pv 06Sep2000              
 POTCAR:     PAW_PBE Fe_pv 02Aug2007              
 POTCAR:    PAW_PBE S 06Sep2000                   
   SHA256 =  0fc7481fb0695f01bdc6462160264c5c84044ae9ec85a907d398b887a2bc3132 S/
   COPYR  = (c) Copyright 06Sep2000 Georg Kresse                                
   COPYR  = This file is part of the software VASP. Any use, copying, and all ot
   COPYR  = If you do not have a valid VASP license, you may not use, copy or di
   VRHFIN =S : s2p4                                                             
   LEXCH  = PE                                                                  
   EATOM  =   276.8230 eV,   20.3459 Ry                                         
                                                                                
   TITEL  = PAW_PBE S 06Sep2000                                                 
   LULTRA =        F    use ultrasoft PP ?                                      
   IUNSCR =        1    unscreen: 0-lin 1-nonlin 2-no                           
   RPACOR =    1.500    partial core radius                                     
   POMASS =   32.066; ZVAL   =    6.000    mass and valenz                      
   RCORE  =    1.900    outmost cutoff radius                                   
   RWIGS  =    2.200; RWIGS  =    1.164    wigner-seitz radius (au A)           
   ENMAX  =  258.689; ENMIN  =  194.016 eV                                      
   ICORE  =        2    local potential                                         
   LCOR   =        T    correct aug charges                                     
   LPAW   =        T    paw PP                                                  
   EAUG   =  335.092                                                            
   DEXC   =    0.000                                                            
   RMAX   =    1.942    core radius for proj-oper                               
   RAUG   =    1.300    factor for augmentation sphere                          
   RDEP   =    1.954    radius for radial grids                                 
   RDEPT  =    1.744    core radius for aug-charge                              
                                                                                
   Atomic configuration                                                         
    6 entries                                                                   
     n  l   j            E        occ.                                          
     1  0  0.50     -2405.8406   2.0000                                         
     2  0  0.50      -211.7007   2.0000                                         
     2  1  1.50      -156.4958   6.0000                                         
     3  0  0.50       -17.2562   2.0000                                         
     3  1  0.50        -7.0085   4.0000                                         
     3  2  1.50        -6.8029   0.0000                                         
   Description                                                                  
     l       E           TYP  RCUT    TYP  RCUT                                 
     0    -17.2561641     23  1.900                                             
     0    -15.8743224     23  1.900                                             
     1     -7.0085400     23  1.900                                             
     1     -2.7779785     23  1.900                                             
     2     -6.8029130     23  1.900                                             
  local pseudopotential read in
  partial core-charges read in
  partial kinetic energy density read in
  atomic valenz-charges read in
  non local Contribution for L=           0  read in
    real space projection operators read in
  non local Contribution for L=           0  read in
    real space projection operators read in
  non local Contribution for L=           1  read in
    real space projection operators read in
  non local Contribution for L=           1  read in
    real space projection operators read in
    PAW grid and wavefunctions read in
 
   number of l-projection  operators is LMAX  =           4
   number of lm-projection operators is LMMAX =           8
 
 POTCAR:     PAW_PBE Cu_pv 06Sep2000              
   SHA256 =  cb7b504e2ea725fe1f25c85a9ac77d4012ce94cd394135b722c4e25ec297f1cb Cu
   COPYR  = (c) Copyright 06Sep2000 Georg Kresse                                
   COPYR  = This file is part of the software VASP. Any use, copying, and all ot
   COPYR  = If you do not have a valid VASP license, you may not use, copy or di
   VRHFIN =Cu: d10 p1                                                           
   LEXCH  = PE                                                                  
   EATOM  =  4120.1201 eV,  302.8203 Ry                                         
                                                                                
   TITEL  = PAW_PBE Cu_pv 06Sep2000                                             
   LULTRA =        F    use ultrasoft PP ?                                      
   IUNSCR =        1    unscreen: 0-lin 1-nonlin 2-no                           
   RPACOR =    1.500    partial core radius                                     
   POMASS =   63.546; ZVAL   =   17.000    mass and valenz                      
   RCORE  =    2.000    outmost cutoff radius                                   
   RWIGS  =    2.000; RWIGS  =    1.058    wigner-seitz radius (au A)           
   ENMAX  =  368.648; ENMIN  =  276.486 eV                                      
   RCLOC  =    1.304    cutoff for local pot                                    
   LCOR   =        T    correct aug charges                                     
   LPAW   =        T    paw PP                                                  
   EAUG   =  758.233                                                            
   DEXC   =    0.000                                                            
   RMAX   =    2.046    core radius for proj-oper                               
   RAUG   =    1.300    factor for augmentation sphere                          
   RDEP   =    2.025    radius for radial grids                                 
   RDEPT  =    1.558    core radius for aug-charge                              
                                                                                
   Atomic configuration                                                         
    8 entries                                                                   
     n  l   j            E        occ.                                          
     1  0  0.50     -8850.2467   2.0000                                         
     2  0  0.50     -1062.3498   2.0000                                         
     2  1  1.50      -916.8226   6.0000                                         
     3  0  0.50      -114.6929   2.0000                                         
     3  1  1.50       -72.1325   6.0000                                         
     3  2  2.50        -5.0394  10.0000                                         
     4  0  0.50        -4.6097   1.0000                                         
     4  3  2.50        -1.3606   0.0000                                         
   Description                                                                  
     l       E           TYP  RCUT    TYP  RCUT                                 
     1    -72.1324777     23  1.700                                             
     1     -1.3605826     23  1.700                                             
     2     -5.0393776     23  2.000                                             
     2     -6.3999602     23  2.000                                             
     0     -4.6097062     23  1.800                                             
     0     14.1620818     23  1.800                                             
  local pseudopotential read in
  partial core-charges read in
  partial kinetic energy density read in
  atomic valenz-charges read in
  non local Contribution for L=           1  read in
    real space projection operators read in
  non local Contribution for L=           1  read in
    real space projection operators read in
  non local Contribution for L=           2  read in
    real space projection operators read in
  non local Contribution for L=           2  read in
    real space projection operators read in
  non local Contribution for L=           0  read in
    real space projection operators read in
  non local Contribution for L=           0  read in
    real space projection operators read in
    PAW grid and wavefunctions read in
 
   number of l-projection  operators is LMAX  =           6
   number of lm-projection operators is LMMAX =          18
 
 POTCAR:     PAW_PBE Fe_pv 02Aug2007              
   SHA256 =  5d22e414b1f82158bf2c7ecb8b97b28fd0923e48cadc1c3bf74d524558f5dd32 Fe
   COPYR  = (c) Copyright 02Aug2007 Georg Kresse                                
   COPYR  = This file is part of the software VASP. Any use, copying, and all ot
   COPYR  = If you do not have a valid VASP license, you may not use, copy or di
   VRHFIN =Fe:  3pd7s1                                                          
   LEXCH  = PE                                                                  
   EATOM  =  2457.4239 eV,  180.6156 Ry                                         
                                                                                
   TITEL  = PAW_PBE Fe_pv 02Aug2007                                             
   LULTRA =        F    use ultrasoft PP ?                                      
   IUNSCR =        1    unscreen: 0-lin 1-nonlin 2-no                           
   RPACOR =    1.750    partial core radius                                     
   POMASS =   55.847; ZVAL   =   14.000    mass and valenz                      
   RCORE  =    2.200    outmost cutoff radius                                   
   RWIGS  =    2.200; RWIGS  =    1.164    wigner-seitz radius (au A)           
   ENMAX  =  293.238; ENMIN  =  219.928 eV                                      
   ICORE  =        3    local potential                                         
   LCOR   =        T    correct aug charges                                     
   LPAW   =        T    paw PP                                                  
   EAUG   =  578.342                                                            
   DEXC   =    0.000                                                            
   RMAX   =    2.249    core radius for proj-oper                               
   RAUG   =    1.300    factor for augmentation sphere                          
   RDEP   =    2.296    radius for radial grids                                 
   RDEPT  =    1.766    core radius for aug-charge                              
                                                                                
   Atomic configuration                                                         
    8 entries                                                                   
     n  l   j            E        occ.                                          
     1  0  0.50     -6993.8440   2.0000                                         
     2  0  0.50      -814.6047   2.0000                                         
     2  1  1.50      -693.3689   6.0000                                         
     3  0  0.50       -89.4732   2.0000                                         
     3  1  1.50       -55.6373   6.0000                                         
     3  2  2.50        -3.8151   7.0000                                         
     4  0  0.50        -4.2551   1.0000                                         
     4  3  2.50        -1.3606   0.0000                                         
   Description                                                                  
     l       E           TYP  RCUT    TYP  RCUT                                 
     1    -55.6372668     23  2.000                                             
     1     -5.4423304     23  2.000                                             
     2     -3.8151096     23  2.200                                             
     2     -5.1756922     23  2.200                                             
     0     -4.2550951     23  2.200                                             
     0     27.2116520     23  2.200                                             
     3     -1.3605826     23  2.200                                             
  local pseudopotential read in
  partial core-charges read in
  partial kinetic energy density read in
  atomic valenz-charges read in
  non local Contribution for L=           1  read in
    real space projection operators read in
  non local Contribution for L=           1  read in
    real space projection operators read in
  non local Contribution for L=           2  read in
    real space projection operators read in
  non local Contribution for L=           2  read in
    real space projection operators read in
  non local Contribution for L=           0  read in
    real space projection operators read in
  non local Contribution for L=           0  read in
    real space projection operators read in
    PAW grid and wavefunctions read in
 
   number of l-projection  operators is LMAX  =           6
   number of lm-projection operators is LMMAX =          18
 

 ----------------------------------------------------------------------------- 
|                                                                             |
|  ADVICE TO THIS USER RUNNING 'VASP/VAMP'   (HEAR YOUR MASTER'S VOICE ...):  |
|                                                                             |
|      You enforced a specific xc-type in the INCAR file,                     |
|      a different type was found on the POTCAR file                          |
|          I HOPE YOU KNOW, WHAT YOU ARE  DOING                               |
|                                                                             |
 ----------------------------------------------------------------------------- 

  PAW_PBE S 06Sep2000                   :
 energy of atom  1       EATOM= -276.8230
 kinetic energy error for atom=    0.0007 (will be added to EATOM!!)
   PAW_PBE Cu_pv 06Sep2000              :
 energy of atom  2       EATOM=-4120.1201
 kinetic energy error for atom=    0.0094 (will be added to EATOM!!)
   PAW_PBE Fe_pv 02Aug2007              :
 energy of atom  3       EATOM=-2457.4239
 kinetic energy error for atom=    0.0025 (will be added to EATOM!!)
 
 
 POSCAR: sm_isp_SD0310437-standardized_unitcell  
  positions in direct lattice
  velocities in cartesian coordinates
 exchange correlation table for  LEXCH =       14
   RHO(1)=    0.500       N(1)  =     2000
   RHO(2)=  100.500       N(2)  =     4000
 


--------------------------------------------------------------------------------------------------------


 ion  position               nearest neighbor table
   1  0.252  0.250  0.125-  11 2.27  10 2.27  16 2.29  13 2.29
   2  0.748  0.750  0.125-  11 2.27  10 2.27  16 2.29  13 2.29
   3  0.250  0.748  0.875-  11 2.27  12 2.27  13 2.29  14 2.29
   4  0.750  0.252  0.875-  11 2.27  12 2.27  13 2.29  14 2.29
   5  0.248  0.250  0.625-  12 2.27   9 2.27  15 2.29  14 2.29
   6  0.752  0.750  0.625-  12 2.27   9 2.27  15 2.29  14 2.29
   7  0.750  0.248  0.375-   9 2.27  10 2.27  15 2.29  16 2.29
   8  0.250  0.752  0.375-   9 2.27  10 2.27  15 2.29  16 2.29
   9  0.000  0.000  0.500-   7 2.27   8 2.27   5 2.27   6 2.27
  10  0.500  0.000  0.250-   7 2.27   8 2.27   1 2.27   2 2.27
  11  0.500  0.500  1.000-   4 2.27   3 2.27   1 2.27   2 2.27
  12  0.000  0.500  0.750-   4 2.27   3 2.27   5 2.27   6 2.27
  13  0.000  0.000  1.000-   3 2.29   4 2.29   2 2.29   1 2.29
  14  0.500  0.000  0.750-   3 2.29   4 2.29   6 2.29   5 2.29
  15  0.500  0.500  0.500-   8 2.29   7 2.29   6 2.29   5 2.29
  16  0.000  0.500  0.250-   8 2.29   7 2.29   2 2.29   1 2.29
 
  LATTYP: Found a simple orthorhombic cell.
 ALAT       =     5.1161149551
 B/A-ratio  =     1.0484442620
 C/A-ratio  =     2.0751100263
  
  Lattice vectors:
  
 A1 = (   0.0000000000,  -5.1161149551,   0.0000000000)
 A2 = (  -5.3639613686,   0.0000000000,   0.0000000000)
 A3 = (   0.0000000000,   0.0000000000, -10.6165014392)


Analysis of symmetry for initial positions (statically):
=====================================================================
 Subroutine PRICEL returns following result:
 
  LATTYP: Found a body centered orthorhombic cell.
 ALAT       =     5.1161149551
 B/A-ratio  =     1.0484442620
 C/A-ratio  =     2.0751100263
  
  Lattice vectors:
  
 A1 = (  -2.6819806843,  -2.5580574776,   5.3082507196)
 A2 = (   2.6819806843,   2.5580574776,   5.3082507196)
 A3 = (  -2.6819806843,   2.5580574776,  -5.3082507196)
 
   2 primitive cells build up your supercell.
 

 Routine SETGRP: Setting up the symmetry group for a 
 simple orthorhombic supercell.


 Subroutine GETGRP returns: Found  4 space group operations
 (whereof  2 operations were pure point group operations)
 out of a pool of  8 trial point group operations.


The static configuration has the point symmetry C_2 .
 The point group associated with its full space group is D_2 .


Analysis of symmetry for dynamics (positions and initial velocities):
=====================================================================
 Subroutine PRICEL returns following result:
 
  LATTYP: Found a body centered orthorhombic cell.
 ALAT       =     5.1161149551
 B/A-ratio  =     1.0484442620
 C/A-ratio  =     2.0751100263
  
  Lattice vectors:
  
 A1 = (  -2.6819806843,  -2.5580574776,   5.3082507196)
 A2 = (   2.6819806843,   2.5580574776,   5.3082507196)
 A3 = (  -2.6819806843,   2.5580574776,  -5.3082507196)
 
   2 primitive cells build up your supercell.
 

 Routine SETGRP: Setting up the symmetry group for a 
 simple orthorhombic supercell.


 Subroutine GETGRP returns: Found  4 space group operations
 (whereof  2 operations were pure point group operations)
 out of a pool of  8 trial point group operations.


The dynamic configuration has the point symmetry C_2 .
 The point group associated with its full space group is D_2 .


Analysis of structural, dynamic, and magnetic symmetry:
=====================================================================
 Subroutine PRICEL returns following result:
 
  LATTYP: Found a body centered orthorhombic cell.
 ALAT       =     5.1161149551
 B/A-ratio  =     1.0484442620
 C/A-ratio  =     2.0751100263
  
  Lattice vectors:
  
 A1 = (  -2.6819806843,  -2.5580574776,   5.3082507196)
 A2 = (   2.6819806843,   2.5580574776,   5.3082507196)
 A3 = (  -2.6819806843,   2.5580574776,  -5.3082507196)
 
   2 primitive cells build up your supercell.
 

 Routine SETGRP: Setting up the symmetry group for a 
 simple orthorhombic supercell.


 Subroutine GETGRP returns: Found  4 space group operations
 (whereof  2 operations were pure point group operations)
 out of a pool of  8 trial point group operations.


The (compounded) configuration has the point symmetry C_2 .
 The point group associated with its full space group is D_2 .


 Subroutine INISYM returns: Found  4 space group operations
 (whereof  2 operations are pure point group operations),
 and found     2 'primitive' translations

 
 
 KPOINTS: Automatic mesh                          

Automatic generation of k-mesh.
Space group operators:
 irot       det(A)        alpha          n_x          n_y          n_z        tau_x        tau_y        tau_z
    1     1.000000     0.000000     1.000000     0.000000     0.000000     0.000000     0.000000     0.000000
    2     1.000000   180.000000     0.000000     0.000000     1.000000     0.000000     0.000000     0.000000
    3     1.000000   180.000000     1.000000     0.000000     0.000000     0.000000     0.500000     0.250000
    4     1.000000   179.999999     0.000000     1.000000     0.000000     0.000000     0.500000     0.250000
 
 Subroutine IBZKPT returns following result:
 ===========================================
 
 Found     36 irreducible k-points:
 
 Following reciprocal coordinates:
            Coordinates               Weight
  0.000000  0.000000  0.000000      1.000000
  0.166667  0.000000  0.000000      2.000000
  0.333333  0.000000  0.000000      2.000000
  0.500000  0.000000  0.000000      1.000000
  0.000000  0.166667  0.000000      2.000000
  0.166667  0.166667  0.000000      4.000000
  0.333333  0.166667  0.000000      4.000000
  0.500000  0.166667  0.000000      2.000000
  0.000000  0.333333  0.000000      2.000000
  0.166667  0.333333  0.000000      4.000000
  0.333333  0.333333  0.000000      4.000000
  0.500000  0.333333  0.000000      2.000000
  0.000000  0.500000  0.000000      1.000000
  0.166667  0.500000  0.000000      2.000000
  0.333333  0.500000  0.000000      2.000000
  0.500000  0.500000  0.000000      1.000000
  0.000000  0.000000  0.333333      2.000000
  0.166667  0.000000  0.333333      4.000000
  0.333333  0.000000  0.333333      4.000000
  0.500000  0.000000  0.333333      2.000000
  0.000000  0.166667  0.333333      4.000000
  0.166667  0.166667  0.333333      4.000000
  0.333333  0.166667  0.333333      4.000000
  0.500000  0.166667  0.333333      4.000000
 -0.333333  0.166667  0.333333      4.000000
 -0.166667  0.166667  0.333333      4.000000
  0.000000  0.333333  0.333333      4.000000
  0.166667  0.333333  0.333333      4.000000
  0.333333  0.333333  0.333333      4.000000
  0.500000  0.333333  0.333333      4.000000
 -0.333333  0.333333  0.333333      4.000000
 -0.166667  0.333333  0.333333      4.000000
  0.000000  0.500000  0.333333      2.000000
  0.166667  0.500000  0.333333      4.000000
  0.333333  0.500000  0.333333      4.000000
  0.500000  0.500000  0.333333      2.000000
 
 Following cartesian coordinates:
            Coordinates               Weight
  0.000000  0.000000  0.000000      1.000000
  0.031072  0.000000  0.000000      2.000000
  0.062143  0.000000  0.000000      2.000000
  0.093215  0.000000  0.000000      1.000000
  0.000000  0.032577  0.000000      2.000000
  0.031072  0.032577  0.000000      4.000000
  0.062143  0.032577  0.000000      4.000000
  0.093215  0.032577  0.000000      2.000000
  0.000000  0.065154  0.000000      2.000000
  0.031072  0.065154  0.000000      4.000000
  0.062143  0.065154  0.000000      4.000000
  0.093215  0.065154  0.000000      2.000000
  0.000000  0.097730  0.000000      1.000000
  0.031072  0.097730  0.000000      2.000000
  0.062143  0.097730  0.000000      2.000000
  0.093215  0.097730  0.000000      1.000000
  0.000000  0.000000  0.031398      2.000000
  0.031072  0.000000  0.031398      4.000000
  0.062143  0.000000  0.031398      4.000000
  0.093215  0.000000  0.031398      2.000000
  0.000000  0.032577  0.031398      4.000000
  0.031072  0.032577  0.031398      4.000000
  0.062143  0.032577  0.031398      4.000000
  0.093215  0.032577  0.031398      4.000000
 -0.062143  0.032577  0.031398      4.000000
 -0.031072  0.032577  0.031398      4.000000
  0.000000  0.065154  0.031398      4.000000
  0.031072  0.065154  0.031398      4.000000
  0.062143  0.065154  0.031398      4.000000
  0.093215  0.065154  0.031398      4.000000
 -0.062143  0.065154  0.031398      4.000000
 -0.031072  0.065154  0.031398      4.000000
  0.000000  0.097730  0.031398      2.000000
  0.031072  0.097730  0.031398      4.000000
  0.062143  0.097730  0.031398      4.000000
  0.093215  0.097730  0.031398      2.000000
 
 TETIRR: Found    544 inequivalent tetrahedra from      648


--------------------------------------------------------------------------------------------------------




 Dimension of arrays:
   k-points           NKPTS =     36   k-points in BZ     NKDIM =     36   number of bands    NBANDS=    208
   number of dos      NEDOS =    301   number of ions     NIONS =     16
   non local maximal  LDIM  =      6   non local SUM 2l+1 LMDIM =     18
   total plane-waves  NPLWV = 221184
   max r-space proj   IRMAX =      1   max aug-charges    IRDMAX=  24115
   dimension x,y,z NGX =    48 NGY =   48 NGZ =   96
   dimension x,y,z NGXF=    96 NGYF=   96 NGZF=  192
   support grid    NGXF=    96 NGYF=   96 NGZF=  192
   ions per type =               8   4   4
   NGX,Y,Z   is equivalent  to a cutoff of  14.88, 15.60, 15.03 a.u.
   NGXF,Y,Z  is equivalent  to a cutoff of  29.75, 31.19, 30.07 a.u.

 SYSTEM =  CuFeS2                                  
 POSCAR =  sm_isp_SD0310437-standardized_unitcell  

 Startparameter for this run:
   NWRITE =      2    write-flag & timer
   PREC   = accura    normal or accurate (medium, high low for compatibility)
   ISTART =      1    job   : 0-new  1-cont  2-samecut
   ICHARG =      1    charge: 1-file 2-atom 10-const
   ISPIN  =      1    spin polarized calculation?
   LNONCOLLINEAR =      T non collinear calculations
   LSORBIT =      F    spin-orbit coupling
   INIWAV =      1    electr: 0-lowe 1-rand  2-diag
   LASPH  =      T    aspherical Exc in radial PAW
   METAGGA=      F    non-selfconsistent MetaGGA calc.

 Electronic Relaxation 1
   ENCUT  =  700.0 eV  51.45 Ry    7.17 a.u.  11.57 11.04 22.90*2*pi/ulx,y,z
   ENINI  =  700.0     initial cutoff
   ENAUG  =  758.2 eV  augmentation charge cutoff
   NELM   =    200;   NELMIN=  2; NELMDL=  0     # of ELM steps 
   EDIFF  = 0.1E-07   stopping-criterion for ELM
   LREAL  =      F    real-space projection
   NLSPLINE    = F    spline interpolate recip. space projectors
   LCOMPAT=      F    compatible to vasp.4.4
   GGA_COMPAT  = T    GGA compatible to vasp.4.4-vasp.4.6
   LMAXPAW     = -100 max onsite density
   LMAXMIX     =    4 max onsite mixed and CHGCAR
   VOSKOWN=      0    Vosko Wilk Nusair interpolation
   ROPT   =    0.00000   0.00000   0.00000
 Ionic relaxation
   EDIFFG = -.1E-04   stopping-criterion for IOM
   NSW    =      0    number of steps for IOM
   NBLOCK =      1;   KBLOCK =      1    inner block; outer block 
   IBRION =     -1    ionic relax: 0-MD 1-quasi-New 2-CG
   NFREE  =      0    steps in history (QN), initial steepest desc. (CG)
   ISIF   =      2    stress and relaxation
   IWAVPR =     10    prediction:  0-non 1-charg 2-wave 3-comb
   ISYM   =      1    0-nonsym 1-usesym 2-fastsym
   LCORR  =      T    Harris-Foulkes like correction to forces

   POTIM  = 0.1000    time-step for ionic-motion
   TEIN   =    0.0    initial temperature
   TEBEG  =    0.0;   TEEND  =   0.0 temperature during run
   SMASS  =  -3.00    Nose mass-parameter (am)
   estimated Nose-frequenzy (Omega)   =  0.10E-29 period in steps =****** mass=  -0.658E-27a.u.
   SCALEE = 1.0000    scale energy and forces
   NPACO  =    256;   APACO  = 16.0  distance and # of slots for P.C.
   PSTRESS=    0.0 pullay stress

  Mass of Ions in am
   POMASS =  32.07 63.55 55.85
  Ionic Valenz
   ZVAL   =   6.00 17.00 14.00
  Atomic Wigner-Seitz radii
   RWIGS  =  -1.00 -1.00 -1.00
  virtual crystal weights 
   VCA    =   1.00  1.00  1.00
   NELECT =     172.0000    total number of electrons
   NUPDOWN=      -1.0000    fix difference up-down

 DOS related values:
   EMIN   =  10.00;   EMAX   =-10.00  energy-range for DOS
   EFERMI =   0.00
   ISMEAR =    -5;   SIGMA  =   0.03  broadening in eV -4-tet -1-fermi 0-gaus

 Electronic relaxation 2 (details)
   IALGO  =     58    algorithm
   LDIAG  =      T    sub-space diagonalisation (order eigenvalues)
   LSUBROT=      F    optimize rotation matrix (better conditioning)
   TURBO    =      0    0=normal 1=particle mesh
   IRESTART =      0    0=no restart 2=restart with 2 vectors
   NREBOOT  =      0    no. of reboots
   NMIN     =      0    reboot dimension
   EREF     =   0.00    reference energy to select bands
   IMIX   =      4    mixing-type and parameters
     AMIX     =   0.40;   BMIX     =  1.00
     AMIX_MAG =   1.60;   BMIX_MAG =  1.00
     AMIN     =   0.10
     WC   =   100.;   INIMIX=   1;  MIXPRE=   1;  MAXMIX= -45

 Intra band minimization:
   WEIMIN = 0.0000     energy-eigenvalue tresh-hold
   EBREAK =  0.12E-10  absolut break condition
   DEPER  =   0.30     relativ break condition  

   TIME   =   0.40     timestep for ELM

  volume/ion in A,a.u.               =      18.21       122.88
  Fermi-wavevector in a.u.,A,eV,Ry     =   1.373352  2.595259 25.661890  1.886096
  Thomas-Fermi vector in A             =   2.498877
 
 Write flags
   LWAVE        =      T    write WAVECAR
   LDOWNSAMPLE  =      F    k-point downsampling of WAVECAR
   LCHARG       =      T    write CHGCAR
   LVTOT        =      F    write LOCPOT, total local potential
   LVHAR        =      F    write LOCPOT, Hartree potential only
   LELF         =      F    write electronic localiz. function (ELF)
   LORBIT       =     11    0 simple, 1 ext, 2 COOP (PROOUT), +10 PAW based schemes


 Dipole corrections
   LMONO  =      F    monopole corrections only (constant potential shift)
   LDIPOL =      F    correct potential (dipole corrections)
   IDIPOL =      0    1-x, 2-y, 3-z, 4-all directions 
   EPSILON=  1.0000000 bulk dielectric constant

 LDA+U is selected, type is set to LDAUTYPE =  2
   angular momentum for each species LDAUL =     2    2    2
   U (eV)           for each species LDAUU =   0.0  0.1  4.7
   J (eV)           for each species LDAUJ =   0.0  0.0  0.0
 Exchange correlation treatment:
   GGA     =    PS    GGA type
   LEXCH   =    14    internal setting for exchange type
   VOSKOWN=      0    Vosko Wilk Nusair interpolation
   LHFCALC =     F    Hartree Fock is set to
   LHFONE  =     F    Hartree Fock one center treatment
   AEXX    =    0.0000 exact exchange contribution

 Linear response parameters
   LEPSILON=     F    determine dielectric tensor
   LRPA    =     F    only Hartree local field effects (RPA)
   LNABLA  =     F    use nabla operator in PAW spheres
   LVEL    =     F    velocity operator in full k-point grid
   LINTERFAST=   F  fast interpolation
   KINTER  =     0    interpolate to denser k-point grid
   CSHIFT  =0.1000    complex shift for real part using Kramers Kronig
   OMEGAMAX=  -1.0    maximum frequency
   DEG_THRESHOLD= 0.2000000E-02 threshold for treating states as degnerate
   RTIME   =   -0.100 relaxation time in fs
  (WPLASMAI=    0.000 imaginary part of plasma frequency in eV, 0.658/RTIME)
   DFIELD  = 0.0000000 0.0000000 0.0000000 field for delta impulse in time
 
 Orbital magnetization related:
   ORBITALMAG=     F  switch on orbital magnetization
   LCHIMAG   =     F  perturbation theory with respect to B field
   DQ        =  0.001000  dq finite difference perturbation B field
   LLRAUG    =     F  two centre corrections for induced B field



--------------------------------------------------------------------------------------------------------


 Static calculation
 charge density and potential will be updated during run
 non collinear spin polarized calculation
 Conjugate gradient for all bands (Freysoldt, et al. PRB 79, 241103 (2009))
 preconditioned conjugated gradient                                        
 perform sub-space diagonalisation
    before iterative eigenvector-optimisation
 modified Broyden-mixing scheme, WC =      100.0
 initial mixing is a Kerker type mixing with AMIX =  0.4000 and BMIX =      1.0000
 Hartree-type preconditioning will be used
 using additional bands          122
 reciprocal scheme for non local part
 use partial core corrections
 no Harris-corrections to forces 
 use gradient corrections 
 use of overlap-Matrix (Vanderbilt PP)
 Fermi weights with tetrahedron method with Bloechl corrections


--------------------------------------------------------------------------------------------------------


  energy-cutoff  :      700.00
  volume of cell :      291.34
      direct lattice vectors                 reciprocal lattice vectors
     5.363961369  0.000000000  0.000000000     0.186429381  0.000000000  0.000000000
     0.000000000  5.116114955  0.000000000     0.000000000  0.195460815  0.000000000
     0.000000000  0.000000000 10.616501439     0.000000000  0.000000000  0.094192989

  length of vectors
     5.363961369  5.116114955 10.616501439     0.186429381  0.195460815  0.094192989


 
 old parameters found on file WAVECAR:
  energy-cutoff  :      700.00
  volume of cell :      291.38
      direct lattice vectors                 reciprocal lattice vectors
     5.363961369  0.000000000  0.000000000     0.186429381  0.000000000  0.000000000
     0.000000000  5.116782539  0.000000000     0.000000000  0.195435314  0.000000000
     0.000000000  0.000000000 10.616501439     0.000000000  0.000000000  0.094192989

  length of vectors

 
 k-points in units of 2pi/SCALE and weight: Automatic mesh                          
   0.00000000  0.00000000  0.00000000       0.009
   0.03107156  0.00000000  0.00000000       0.019
   0.06214313  0.00000000  0.00000000       0.019
   0.09321469  0.00000000  0.00000000       0.009
   0.00000000  0.03257680  0.00000000       0.019
   0.03107156  0.03257680  0.00000000       0.037
   0.06214313  0.03257680  0.00000000       0.037
   0.09321469  0.03257680  0.00000000       0.019
   0.00000000  0.06515361  0.00000000       0.019
   0.03107156  0.06515361  0.00000000       0.037
   0.06214313  0.06515361  0.00000000       0.037
   0.09321469  0.06515361  0.00000000       0.019
   0.00000000  0.09773041  0.00000000       0.009
   0.03107156  0.09773041  0.00000000       0.019
   0.06214313  0.09773041  0.00000000       0.019
   0.09321469  0.09773041  0.00000000       0.009
   0.00000000  0.00000000  0.03139766       0.019
   0.03107156  0.00000000  0.03139766       0.037
   0.06214313  0.00000000  0.03139766       0.037
   0.09321469  0.00000000  0.03139766       0.019
   0.00000000  0.03257680  0.03139766       0.037
   0.03107156  0.03257680  0.03139766       0.037
   0.06214313  0.03257680  0.03139766       0.037
   0.09321469  0.03257680  0.03139766       0.037
  -0.06214313  0.03257680  0.03139766       0.037
  -0.03107156  0.03257680  0.03139766       0.037
   0.00000000  0.06515361  0.03139766       0.037
   0.03107156  0.06515361  0.03139766       0.037
   0.06214313  0.06515361  0.03139766       0.037
   0.09321469  0.06515361  0.03139766       0.037
  -0.06214313  0.06515361  0.03139766       0.037
  -0.03107156  0.06515361  0.03139766       0.037
   0.00000000  0.09773041  0.03139766       0.019
   0.03107156  0.09773041  0.03139766       0.037
   0.06214313  0.09773041  0.03139766       0.037
   0.09321469  0.09773041  0.03139766       0.019
 
 k-points in reciprocal lattice and weights: Automatic mesh                          
   0.00000000  0.00000000  0.00000000       0.009
   0.16666667  0.00000000  0.00000000       0.019
   0.33333333  0.00000000  0.00000000       0.019
   0.50000000  0.00000000  0.00000000       0.009
   0.00000000  0.16666667  0.00000000       0.019
   0.16666667  0.16666667  0.00000000       0.037
   0.33333333  0.16666667  0.00000000       0.037
   0.50000000  0.16666667  0.00000000       0.019
   0.00000000  0.33333333  0.00000000       0.019
   0.16666667  0.33333333  0.00000000       0.037
   0.33333333  0.33333333  0.00000000       0.037
   0.50000000  0.33333333  0.00000000       0.019
   0.00000000  0.50000000  0.00000000       0.009
   0.16666667  0.50000000  0.00000000       0.019
   0.33333333  0.50000000  0.00000000       0.019
   0.50000000  0.50000000  0.00000000       0.009
   0.00000000  0.00000000  0.33333333       0.019
   0.16666667  0.00000000  0.33333333       0.037
   0.33333333  0.00000000  0.33333333       0.037
   0.50000000  0.00000000  0.33333333       0.019
   0.00000000  0.16666667  0.33333333       0.037
   0.16666667  0.16666667  0.33333333       0.037
   0.33333333  0.16666667  0.33333333       0.037
   0.50000000  0.16666667  0.33333333       0.037
  -0.33333333  0.16666667  0.33333333       0.037
  -0.16666667  0.16666667  0.33333333       0.037
   0.00000000  0.33333333  0.33333333       0.037
   0.16666667  0.33333333  0.33333333       0.037
   0.33333333  0.33333333  0.33333333       0.037
   0.50000000  0.33333333  0.33333333       0.037
  -0.33333333  0.33333333  0.33333333       0.037
  -0.16666667  0.33333333  0.33333333       0.037
   0.00000000  0.50000000  0.33333333       0.019
   0.16666667  0.50000000  0.33333333       0.037
   0.33333333  0.50000000  0.33333333       0.037
   0.50000000  0.50000000  0.33333333       0.019
 
 position of ions in fractional coordinates (direct lattice) 
   0.25231914  0.25000000  0.12500000
   0.74768089  0.75000000  0.12500000
   0.25000000  0.74779799  0.87500000
   0.75000000  0.25220204  0.87500000
   0.24768086  0.25000000  0.62500000
   0.75231911  0.75000000  0.62500000
   0.75000000  0.24779796  0.37500000
   0.25000000  0.75220201  0.37500000
   0.00000000  0.00000000  0.49973927
   0.50000000  0.00000000  0.25026073
   0.50000000  0.50000000  0.99973927
   0.00000000  0.50000000  0.75026073
   0.00000000  0.00000000  0.99993173
   0.50000000  0.00000000  0.75006827
   0.50000000  0.50000000  0.49993173
   0.00000000  0.50000000  0.25006827
 
 position of ions in cartesian coordinates  (Angst):
   1.35343010  1.27902874  1.32706268
   4.01053143  3.83708622  1.32706268
   1.34099034  3.82582046  9.28943876
   4.02297103  1.29029465  9.28943876
   1.32855059  1.27902874  6.63531340
   4.03541062  3.83708622  6.63531340
   4.02297103  1.26776283  3.98118804
   1.34099034  3.84835197  3.98118804
   0.00000000  0.00000000  5.30548265
   2.68198068  0.00000000  2.65689343
   2.68198068  2.55805748 10.61373337
   0.00000000  2.55805748  7.96514415
   0.00000000  0.00000000 10.61577670
   2.68198068  0.00000000  7.96310082
   2.68198068  2.55805748  5.30752598
   0.00000000  2.55805748  2.65485010
 
 Euler angles ALPHA=     0.0000000  BETA=     0.0000000

 transformation matrix from SAXIS to cartesian coordinates
 ---------------------------------------------------------
     1.0000000 m_x     0.0000000 m_y     0.0000000 m_z
     0.0000000 m_x     1.0000000 m_y     0.0000000 m_z
     0.0000000 m_x     0.0000000 m_y     1.0000000 m_z

 transformation matrix from cartesian coordinates to SAXIS
 ---------------------------------------------------------
     1.0000000 m_x     0.0000000 m_y     0.0000000 m_z
     0.0000000 m_x     1.0000000 m_y     0.0000000 m_z
     0.0000000 m_x     0.0000000 m_y     1.0000000 m_z




--------------------------------------------------------------------------------------------------------


 k-point  1 :   0.0000 0.0000 0.0000  plane waves:   24386
 k-point  2 :   0.1667 0.0000 0.0000  plane waves:   24414
 k-point  3 :   0.3333 0.0000 0.0000  plane waves:   24550
 k-point  4 :   0.5000 0.0000 0.0000  plane waves:   24504
 k-point  5 :   0.0000 0.1667 0.0000  plane waves:   24556
 k-point  6 :   0.1667 0.1667 0.0000  plane waves:   24486
 k-point  7 :   0.3333 0.1667 0.0000  plane waves:   24470
 k-point  8 :   0.5000 0.1667 0.0000  plane waves:   24468
 k-point  9 :   0.0000 0.3333 0.0000  plane waves:   24584
 k-point 10 :   0.1667 0.3333 0.0000  plane waves:   24522
 k-point 11 :   0.3333 0.3333 0.0000  plane waves:   24496
 k-point 12 :   0.5000 0.3333 0.0000  plane waves:   24480
 k-point 13 :   0.0000 0.5000 0.0000  plane waves:   24500
 k-point 14 :   0.1667 0.5000 0.0000  plane waves:   24544
 k-point 15 :   0.3333 0.5000 0.0000  plane waves:   24532
 k-point 16 :   0.5000 0.5000 0.0000  plane waves:   24448
 k-point 17 :   0.0000 0.0000 0.3333  plane waves:   24428
 k-point 18 :   0.1667 0.0000 0.3333  plane waves:   24518
 k-point 19 :   0.3333 0.0000 0.3333  plane waves:   24446
 k-point 20 :   0.5000 0.0000 0.3333  plane waves:   24460
 k-point 21 :   0.0000 0.1667 0.3333  plane waves:   24522
 k-point 22 :   0.1667 0.1667 0.3333  plane waves:   24514
 k-point 23 :   0.3333 0.1667 0.3333  plane waves:   24490
 k-point 24 :   0.5000 0.1667 0.3333  plane waves:   24496
 k-point 25 :  -0.3333 0.1667 0.3333  plane waves:   24490
 k-point 26 :  -0.1667 0.1667 0.3333  plane waves:   24514
 k-point 27 :   0.0000 0.3333 0.3333  plane waves:   24514
 k-point 28 :   0.1667 0.3333 0.3333  plane waves:   24538
 k-point 29 :   0.3333 0.3333 0.3333  plane waves:   24506
 k-point 30 :   0.5000 0.3333 0.3333  plane waves:   24484
 k-point 31 :  -0.3333 0.3333 0.3333  plane waves:   24506
 k-point 32 :  -0.1667 0.3333 0.3333  plane waves:   24538
 k-point 33 :   0.0000 0.5000 0.3333  plane waves:   24564
 k-point 34 :   0.1667 0.5000 0.3333  plane waves:   24572
 k-point 35 :   0.3333 0.5000 0.3333  plane waves:   24504
 k-point 36 :   0.5000 0.5000 0.3333  plane waves:   24472

 maximum and minimum number of plane-waves per node :       796      728

 maximum number of plane-waves:     24584
 maximum index in each direction: 
   IXMAX=   11   IYMAX=   11   IZMAX=   22
   IXMIN=  -12   IYMIN=  -11   IZMIN=  -23


 parallel 3D FFT for wavefunctions:
    minimum data exchange during FFTs selected (reduces bandwidth)
 parallel 3D FFT for charge:
    minimum data exchange during FFTs selected (reduces bandwidth)


 total amount of memory used by VASP MPI-rank0    80983. kBytes
=======================================================================

   base      :      30000. kBytes
   nonl-proj :       6196. kBytes
   fftplans  :       1447. kBytes
   grid      :       5898. kBytes
   one-center:         62. kBytes
   wavefun   :      37380. kBytes
 
     INWAV:  cpu time    7.6559: real time    7.7312
 Broyden mixing: mesh for mixing (old mesh)
   NGX = 23   NGY = 23   NGZ = 45
  (NGX  = 96   NGY  = 96   NGZ  =192)
  gives a total of  23805 points

 initial charge density was supplied:
 number of electron     171.9999955 magnetization       0.0000000      0.0000000     -0.0000000
 charge density for first step will be calculated from the start-wavefunctions


--------------------------------------------------------------------------------------------------------


 BZINTS: Fermi energy:  4.779960;172.000000 electrons
         Band energy:***********;  BLOECHL correction:  0.000000
 Maximum index for augmentation-charges          961 (set IRDMAX)


--------------------------------------------------------------------------------------------------------


 initial charge from wavefunction
 First call to EWALD:  gamma=   0.267
 Maximum number of real-space cells 3x 3x 2
 Maximum number of reciprocal cells 2x 2x 4

    FEWALD:  cpu time    0.0081: real time    0.0081

 ----------------------------------------------------------------------------- 
|                                                                             |
|           W    W    AA    RRRRR   N    N  II  N    N   GGGG   !!!           |
|           W    W   A  A   R    R  NN   N  II  NN   N  G    G  !!!           |
|           W    W  A    A  R    R  N N  N  II  N N  N  G       !!!           |
|           W WW W  AAAAAA  RRRRR   N  N N  II  N  N N  G  GGG   !            |
|           WW  WW  A    A  R   R   N   NN  II  N   NN  G    G                |
|           W    W  A    A  R    R  N    N  II  N    N   GGGG   !!!           |
|                                                                             |
|      ALGO=A and IALGO=5X tend to fail with the tetrahedron method           |
|      (e.g. Bloechls method ISMEAR=-5 is not variational)                    |
|      please switch to IMSEAR=0-n, except for DOS calculations               |
|      For DOS calculations use IALGO=53 after preconverging with ISMEAR>=0   |
|          I HOPE YOU KNOW, WHAT YOU ARE  DOING                               |
|                                                                             |
 ----------------------------------------------------------------------------- 



--------------------------------------- Iteration      1(   1)  ---------------------------------------


    POTLOK:  cpu time    0.1596: real time    0.1605
    SETDIJ:  cpu time    0.5993: real time    0.6012
    TRIAL :  cpu time    4.0331: real time    4.1216
 BZINTS: Fermi energy:  4.779960;172.000000 electrons
         Band energy:***********;  BLOECHL correction:  0.000000
 BZINTS: Fermi energy:  4.779960;172.000000 electrons
         Band energy:***********;  BLOECHL correction:  0.000000
    CORREC:  cpu time    3.6706: real time    3.6886
    CHARGE:  cpu time    1.1158: real time    1.1214
    --------------------------------------------
      LOOP:  cpu time    9.6032: real time    9.7193

 eigenvalue-minimisations  :     0
 total energy-change (2. order) :-0.8200948E+02  (-0.2350428E-06)
 number of electron     171.9999955 magnetization       0.0000000      0.0000000      0.0000000
 augmentation part       70.5653912 magnetization       0.0000005     -0.0000012      0.0002878

 Free energy of the ion-electron system (eV)
  ---------------------------------------------------
  alpha Z        PSCENC =       581.60253741
  Ewald energy   TEWEN  =    -15554.07415291
  -Hartree energ DENC   =    -10776.81922610
  -exchange      EXHF   =         0.00000000
  -V(xc)+E(xc)   XCENC  =       821.19366613
  PAW double counting   =     27941.00118921   -28864.00537332
  entropy T*S    EENTRO =         0.00000000
  eigenvalues    EBANDS =     -2735.92439632
  atomic energy  EATOM  =     28505.01627691
  ---------------------------------------------------
  free energy    TOTEN  =       -82.00947900 eV

  energy without entropy =      -82.00947900  energy(sigma->0) =      -82.00947900


--------------------------------------------------------------------------------------------------------




--------------------------------------- Iteration      1(   2)  ---------------------------------------


    POTLOK:  cpu time    0.0884: real time    0.0889
    SETDIJ:  cpu time    0.5943: real time    0.5961
    TRIAL :  cpu time    3.8905: real time    3.9139
 BZINTS: Fermi energy:  4.779960;172.000000 electrons
         Band energy:***********;  BLOECHL correction:  0.000000
 BZINTS: Fermi energy:  4.779960;172.000000 electrons
         Band energy:***********;  BLOECHL correction:  0.000000
    CORREC:  cpu time    3.6408: real time    3.6584
    CHARGE:  cpu time    1.1125: real time    1.1181
    --------------------------------------------
      LOOP:  cpu time    9.3588: real time    9.4087

 eigenvalue-minimisations  :     0
 total energy-change (2. order) :-0.4923641E-05  (-0.1233816E-06)
 number of electron     171.9999955 magnetization       0.0000000      0.0000000      0.0000000
 augmentation part       70.5653912 magnetization       0.0000004     -0.0000010      0.0002878

 Free energy of the ion-electron system (eV)
  ---------------------------------------------------
  alpha Z        PSCENC =       581.60253741
  Ewald energy   TEWEN  =    -15554.07415291
  -Hartree energ DENC   =    -10776.81920799
  -exchange      EXHF   =         0.00000000
  -V(xc)+E(xc)   XCENC  =       821.19365543
  PAW double counting   =     27941.00112494   -28864.00530882
  entropy T*S    EENTRO =         0.00000000
  eigenvalues    EBANDS =     -2735.92440887
  atomic energy  EATOM  =     28505.01627691
  ---------------------------------------------------
  free energy    TOTEN  =       -82.00948392 eV

  energy without entropy =      -82.00948392  energy(sigma->0) =      -82.00948392


--------------------------------------------------------------------------------------------------------




--------------------------------------- Iteration      1(   3)  ---------------------------------------


    POTLOK:  cpu time    0.0870: real time    0.0875
    SETDIJ:  cpu time    0.5937: real time    0.5956
    TRIAL :  cpu time    3.9510: real time    3.9746
 BZINTS: Fermi energy:  4.779960;172.000000 electrons
         Band energy:***********;  BLOECHL correction:  0.000000
 BZINTS: Fermi energy:  4.779960;172.000000 electrons
         Band energy:***********;  BLOECHL correction:  0.000000
    CORREC:  cpu time    3.6921: real time    3.7105
    CHARGE:  cpu time    1.1059: real time    1.1114
    --------------------------------------------
      LOOP:  cpu time    9.4477: real time    9.5022

 eigenvalue-minimisations  :     0
 total energy-change (2. order) :-0.3207682E-05  (-0.8039100E-07)
 number of electron     171.9999955 magnetization       0.0000000      0.0000000      0.0000000
 augmentation part       70.5653912 magnetization       0.0000004     -0.0000010      0.0002878

 Free energy of the ion-electron system (eV)
  ---------------------------------------------------
  alpha Z        PSCENC =       581.60253741
  Ewald energy   TEWEN  =    -15554.07415291
  -Hartree energ DENC   =    -10776.81919510
  -exchange      EXHF   =         0.00000000
  -V(xc)+E(xc)   XCENC  =       821.19364831
  PAW double counting   =     27941.00107383   -28864.00525754
  entropy T*S    EENTRO =         0.00000000
  eigenvalues    EBANDS =     -2735.92441803
  atomic energy  EATOM  =     28505.01627691
  ---------------------------------------------------
  free energy    TOTEN  =       -82.00948713 eV

  energy without entropy =      -82.00948713  energy(sigma->0) =      -82.00948713


--------------------------------------------------------------------------------------------------------




--------------------------------------- Iteration      1(   4)  ---------------------------------------


    POTLOK:  cpu time    0.0895: real time    0.0900
    SETDIJ:  cpu time    0.5968: real time    0.5987
    TRIAL :  cpu time    3.9253: real time    3.9485
 BZINTS: Fermi energy:  4.779960;172.000000 electrons
         Band energy:***********;  BLOECHL correction:  0.000000
 BZINTS: Fermi energy:  4.779960;172.000000 electrons
         Band energy:***********;  BLOECHL correction:  0.000000
    CORREC:  cpu time    3.6400: real time    3.6580
    CHARGE:  cpu time    1.1053: real time    1.1107
    --------------------------------------------
      LOOP:  cpu time    9.3779: real time    9.4291

 eigenvalue-minimisations  :     0
 total energy-change (2. order) :-0.2550765E-05  (-0.5896798E-07)
 number of electron     171.9999955 magnetization       0.0000000      0.0000000      0.0000000
 augmentation part       70.5653912 magnetization       0.0000004     -0.0000009      0.0002878

 Free energy of the ion-electron system (eV)
  ---------------------------------------------------
  alpha Z        PSCENC =       581.60253741
  Ewald energy   TEWEN  =    -15554.07415291
  -Hartree energ DENC   =    -10776.81918476
  -exchange      EXHF   =         0.00000000
  -V(xc)+E(xc)   XCENC  =       821.19364256
  PAW double counting   =     27941.00102926   -28864.00521280
  entropy T*S    EENTRO =         0.00000000
  eigenvalues    EBANDS =     -2735.92442533
  atomic energy  EATOM  =     28505.01627691
  ---------------------------------------------------
  free energy    TOTEN  =       -82.00948968 eV

  energy without entropy =      -82.00948968  energy(sigma->0) =      -82.00948968


--------------------------------------------------------------------------------------------------------




--------------------------------------- Iteration      1(   5)  ---------------------------------------


    POTLOK:  cpu time    0.0867: real time    0.0872
    SETDIJ:  cpu time    0.5935: real time    0.5954
    TRIAL :  cpu time    3.9576: real time    3.9808
 BZINTS: Fermi energy:  4.779960;172.000000 electrons
         Band energy:***********;  BLOECHL correction:  0.000000
 BZINTS: Fermi energy:  4.779960;172.000000 electrons
         Band energy:***********;  BLOECHL correction:  0.000000
    CORREC:  cpu time    3.6316: real time    3.6489
    CHARGE:  cpu time    1.1235: real time    1.1290
    --------------------------------------------
      LOOP:  cpu time    9.4156: real time    9.4646

 eigenvalue-minimisations  :     0
 total energy-change (2. order) :-0.2162353E-05  (-0.4509992E-07)
 number of electron     171.9999955 magnetization       0.0000000      0.0000000      0.0000000
 augmentation part       70.5653912 magnetization       0.0000004     -0.0000009      0.0002878

 Free energy of the ion-electron system (eV)
  ---------------------------------------------------
  alpha Z        PSCENC =       581.60253741
  Ewald energy   TEWEN  =    -15554.07415291
  -Hartree energ DENC   =    -10776.81917614
  -exchange      EXHF   =         0.00000000
  -V(xc)+E(xc)   XCENC  =       821.19363764
  PAW double counting   =     27941.00098907   -28864.00517247
  entropy T*S    EENTRO =         0.00000000
  eigenvalues    EBANDS =     -2735.92443135
  atomic energy  EATOM  =     28505.01627691
  ---------------------------------------------------
  free energy    TOTEN  =       -82.00949184 eV

  energy without entropy =      -82.00949184  energy(sigma->0) =      -82.00949184


--------------------------------------------------------------------------------------------------------




--------------------------------------- Iteration      1(   6)  ---------------------------------------


    POTLOK:  cpu time    0.0873: real time    0.0878
    SETDIJ:  cpu time    0.5934: real time    0.5952
    TRIAL :  cpu time    3.9152: real time    3.9386
 BZINTS: Fermi energy:  4.779960;172.000000 electrons
         Band energy:***********;  BLOECHL correction:  0.000000
 BZINTS: Fermi energy:  4.779960;172.000000 electrons
         Band energy:***********;  BLOECHL correction:  0.000000
    CORREC:  cpu time    3.6476: real time    3.6657
    CHARGE:  cpu time    1.1196: real time    1.1253
    --------------------------------------------
      LOOP:  cpu time    9.3844: real time    9.4345

 eigenvalue-minimisations  :     0
 total energy-change (2. order) :-0.1927634E-05  (-0.3617133E-07)
 number of electron     171.9999955 magnetization       0.0000000      0.0000000      0.0000000
 augmentation part       70.5653912 magnetization       0.0000004     -0.0000008      0.0002878

 Free energy of the ion-electron system (eV)
  ---------------------------------------------------
  alpha Z        PSCENC =       581.60253741
  Ewald energy   TEWEN  =    -15554.07415291
  -Hartree energ DENC   =    -10776.81916884
  -exchange      EXHF   =         0.00000000
  -V(xc)+E(xc)   XCENC  =       821.19363322
  PAW double counting   =     27941.00095249   -28864.00513577
  entropy T*S    EENTRO =         0.00000000
  eigenvalues    EBANDS =     -2735.92443626
  atomic energy  EATOM  =     28505.01627691
  ---------------------------------------------------
  free energy    TOTEN  =       -82.00949377 eV

  energy without entropy =      -82.00949377  energy(sigma->0) =      -82.00949377


--------------------------------------------------------------------------------------------------------




--------------------------------------- Iteration      1(   7)  ---------------------------------------


    POTLOK:  cpu time    0.0863: real time    0.0868
    SETDIJ:  cpu time    0.5925: real time    0.5941
    TRIAL :  cpu time    3.9247: real time    3.9482
 BZINTS: Fermi energy:  4.779960;172.000000 electrons
         Band energy:***********;  BLOECHL correction:  0.000000
 BZINTS: Fermi energy:  4.779960;172.000000 electrons
         Band energy:***********;  BLOECHL correction:  0.000000
    CORREC:  cpu time    3.6156: real time    3.6333
    CHARGE:  cpu time    1.1206: real time    1.1263
    --------------------------------------------
      LOOP:  cpu time    9.3604: real time    9.4100

 eigenvalue-minimisations  :     0
 total energy-change (2. order) :-0.1867600E-05  (-0.2897219E-07)
 number of electron     171.9999955 magnetization       0.0000000      0.0000000      0.0000000
 augmentation part       70.5653912 magnetization       0.0000004     -0.0000008      0.0002878

 Free energy of the ion-electron system (eV)
  ---------------------------------------------------
  alpha Z        PSCENC =       581.60253741
  Ewald energy   TEWEN  =    -15554.07415291
  -Hartree energ DENC   =    -10776.81916261
  -exchange      EXHF   =         0.00000000
  -V(xc)+E(xc)   XCENC  =       821.19362890
  PAW double counting   =     27941.00091891   -28864.00510211
  entropy T*S    EENTRO =         0.00000000
  eigenvalues    EBANDS =     -2735.92444013
  atomic energy  EATOM  =     28505.01627691
  ---------------------------------------------------
  free energy    TOTEN  =       -82.00949564 eV

  energy without entropy =      -82.00949564  energy(sigma->0) =      -82.00949564


--------------------------------------------------------------------------------------------------------




--------------------------------------- Iteration      1(   8)  ---------------------------------------


    POTLOK:  cpu time    0.0866: real time    0.0871
    SETDIJ:  cpu time    0.5940: real time    0.5958
    TRIAL :  cpu time    4.0679: real time    4.0924
 BZINTS: Fermi energy:  4.779960;172.000000 electrons
         Band energy:***********;  BLOECHL correction:  0.000000
 BZINTS: Fermi energy:  4.779960;172.000000 electrons
         Band energy:***********;  BLOECHL correction:  0.000000
    CORREC:  cpu time    3.6448: real time    3.6632
    CHARGE:  cpu time    1.1099: real time    1.1153
    --------------------------------------------
      LOOP:  cpu time    9.5245: real time    9.5757

 eigenvalue-minimisations  :     0
 total energy-change (2. order) :-0.1854689E-05  (-0.2194341E-07)
 number of electron     171.9999955 magnetization       0.0000000      0.0000000      0.0000000
 augmentation part       70.5653912 magnetization       0.0000004     -0.0000008      0.0002878

 Free energy of the ion-electron system (eV)
  ---------------------------------------------------
  alpha Z        PSCENC =       581.60253741
  Ewald energy   TEWEN  =    -15554.07415291
  -Hartree energ DENC   =    -10776.81915736
  -exchange      EXHF   =         0.00000000
  -V(xc)+E(xc)   XCENC  =       821.19362459
  PAW double counting   =     27941.00088846   -28864.00507159
  entropy T*S    EENTRO =         0.00000000
  eigenvalues    EBANDS =     -2735.92444299
  atomic energy  EATOM  =     28505.01627691
  ---------------------------------------------------
  free energy    TOTEN  =       -82.00949749 eV

  energy without entropy =      -82.00949749  energy(sigma->0) =      -82.00949749


--------------------------------------------------------------------------------------------------------




--------------------------------------- Iteration      1(   9)  ---------------------------------------


    POTLOK:  cpu time    0.0867: real time    0.0873
    SETDIJ:  cpu time    0.5945: real time    0.5964
    TRIAL :  cpu time    3.8408: real time    3.8642
 BZINTS: Fermi energy:  4.779960;172.000000 electrons
         Band energy:***********;  BLOECHL correction:  0.000000
 BZINTS: Fermi energy:  4.779960;172.000000 electrons
         Band energy:***********;  BLOECHL correction:  0.000000
    CORREC:  cpu time    3.6303: real time    3.6480
    CHARGE:  cpu time    1.1493: real time    1.1549
    --------------------------------------------
      LOOP:  cpu time    9.3236: real time    9.3746

 eigenvalue-minimisations  :     0
 total energy-change (2. order) :-0.1667115E-05  (-0.1640311E-07)
 number of electron     171.9999955 magnetization       0.0000000      0.0000000      0.0000000
 augmentation part       70.5653912 magnetization       0.0000004     -0.0000007      0.0002878

 Free energy of the ion-electron system (eV)
  ---------------------------------------------------
  alpha Z        PSCENC =       581.60253741
  Ewald energy   TEWEN  =    -15554.07415291
  -Hartree energ DENC   =    -10776.81915322
  -exchange      EXHF   =         0.00000000
  -V(xc)+E(xc)   XCENC  =       821.19362069
  PAW double counting   =     27941.00086263   -28864.00504572
  entropy T*S    EENTRO =         0.00000000
  eigenvalues    EBANDS =     -2735.92444494
  atomic energy  EATOM  =     28505.01627691
  ---------------------------------------------------
  free energy    TOTEN  =       -82.00949916 eV

  energy without entropy =      -82.00949916  energy(sigma->0) =      -82.00949916


--------------------------------------------------------------------------------------------------------




--------------------------------------- Iteration      1(  10)  ---------------------------------------


    POTLOK:  cpu time    0.0865: real time    0.0870
    SETDIJ:  cpu time    0.5945: real time    0.5964
    TRIAL :  cpu time    3.8316: real time    3.8550
 BZINTS: Fermi energy:  4.779960;172.000000 electrons
         Band energy:***********;  BLOECHL correction:  0.000000
 BZINTS: Fermi energy:  4.779960;172.000000 electrons
         Band energy:***********;  BLOECHL correction:  0.000000
    CORREC:  cpu time    3.6185: real time    3.6362
    CHARGE:  cpu time    1.1097: real time    1.1153
    --------------------------------------------
      LOOP:  cpu time    9.2623: real time    9.3115

 eigenvalue-minimisations  :     0
 total energy-change (2. order) :-0.1361372E-05  (-0.1347542E-07)
 number of electron     171.9999955 magnetization       0.0000000      0.0000000      0.0000000
 augmentation part       70.5653912 magnetization       0.0000004     -0.0000007      0.0002878

 Free energy of the ion-electron system (eV)
  ---------------------------------------------------
  alpha Z        PSCENC =       581.60253741
  Ewald energy   TEWEN  =    -15554.07415291
  -Hartree energ DENC   =    -10776.81915000
  -exchange      EXHF   =         0.00000000
  -V(xc)+E(xc)   XCENC  =       821.19361751
  PAW double counting   =     27941.00084119   -28864.00502425
  entropy T*S    EENTRO =         0.00000000
  eigenvalues    EBANDS =     -2735.92444636
  atomic energy  EATOM  =     28505.01627691
  ---------------------------------------------------
  free energy    TOTEN  =       -82.00950052 eV

  energy without entropy =      -82.00950052  energy(sigma->0) =      -82.00950052


--------------------------------------------------------------------------------------------------------




--------------------------------------- Iteration      1(  11)  ---------------------------------------


    POTLOK:  cpu time    0.0861: real time    0.0866
    SETDIJ:  cpu time    0.5943: real time    0.5961
    TRIAL :  cpu time    3.8805: real time    3.9040
 BZINTS: Fermi energy:  4.779960;172.000000 electrons
         Band energy:***********;  BLOECHL correction:  0.000000
 BZINTS: Fermi energy:  4.779960;172.000000 electrons
         Band energy:***********;  BLOECHL correction:  0.000000
    CORREC:  cpu time    3.6338: real time    3.6513
    CHARGE:  cpu time    1.1082: real time    1.1136
    --------------------------------------------
      LOOP:  cpu time    9.3248: real time    9.3738

 eigenvalue-minimisations  :     0
 total energy-change (2. order) :-0.1078806E-05  (-0.1196420E-07)
 number of electron     171.9999955 magnetization       0.0000000      0.0000000      0.0000000
 augmentation part       70.5653912 magnetization       0.0000004     -0.0000007      0.0002878

 Free energy of the ion-electron system (eV)
  ---------------------------------------------------
  alpha Z        PSCENC =       581.60253741
  Ewald energy   TEWEN  =    -15554.07415291
  -Hartree energ DENC   =    -10776.81914728
  -exchange      EXHF   =         0.00000000
  -V(xc)+E(xc)   XCENC  =       821.19361499
  PAW double counting   =     27941.00082204   -28864.00500510
  entropy T*S    EENTRO =         0.00000000
  eigenvalues    EBANDS =     -2735.92444765
  atomic energy  EATOM  =     28505.01627691
  ---------------------------------------------------
  free energy    TOTEN  =       -82.00950160 eV

  energy without entropy =      -82.00950160  energy(sigma->0) =      -82.00950160


--------------------------------------------------------------------------------------------------------




--------------------------------------- Iteration      1(  12)  ---------------------------------------


    POTLOK:  cpu time    0.0868: real time    0.0873
    SETDIJ:  cpu time    0.5946: real time    0.5964
    TRIAL :  cpu time    3.8082: real time    3.8315
 BZINTS: Fermi energy:  4.779960;172.000000 electrons
         Band energy:***********;  BLOECHL correction:  0.000000
 BZINTS: Fermi energy:  4.779960;172.000000 electrons
         Band energy:***********;  BLOECHL correction:  0.000000
    CORREC:  cpu time    3.6198: real time    3.6374
    CHARGE:  cpu time    1.1213: real time    1.1269
    --------------------------------------------
      LOOP:  cpu time    9.2495: real time    9.3009

 eigenvalue-minimisations  :     0
 total energy-change (2. order) :-0.8373208E-06  (-0.1253059E-07)
 number of electron     171.9999955 magnetization       0.0000000      0.0000000      0.0000000
 augmentation part       70.5653912 magnetization       0.0000004     -0.0000007      0.0002878

 Free energy of the ion-electron system (eV)
  ---------------------------------------------------
  alpha Z        PSCENC =       581.60253741
  Ewald energy   TEWEN  =    -15554.07415291
  -Hartree energ DENC   =    -10776.81914481
  -exchange      EXHF   =         0.00000000
  -V(xc)+E(xc)   XCENC  =       821.19361304
  PAW double counting   =     27941.00080382   -28864.00498688
  entropy T*S    EENTRO =         0.00000000
  eigenvalues    EBANDS =     -2735.92444902
  atomic energy  EATOM  =     28505.01627691
  ---------------------------------------------------
  free energy    TOTEN  =       -82.00950244 eV

  energy without entropy =      -82.00950244  energy(sigma->0) =      -82.00950244


--------------------------------------------------------------------------------------------------------




--------------------------------------- Iteration      1(  13)  ---------------------------------------


    POTLOK:  cpu time    0.0860: real time    0.0865
    SETDIJ:  cpu time    0.5944: real time    0.5962
    TRIAL :  cpu time    3.9096: real time    3.9331
 BZINTS: Fermi energy:  4.779960;172.000000 electrons
         Band energy:***********;  BLOECHL correction:  0.000000
 BZINTS: Fermi energy:  4.779960;172.000000 electrons
         Band energy:***********;  BLOECHL correction:  0.000000
    CORREC:  cpu time    3.6239: real time    3.6411
    CHARGE:  cpu time    1.1032: real time    1.1090
    --------------------------------------------
      LOOP:  cpu time    9.3384: real time    9.3874

 eigenvalue-minimisations  :     0
 total energy-change (2. order) :-0.7083690E-06  (-0.1850925E-07)
 number of electron     171.9999955 magnetization       0.0000000      0.0000000      0.0000000
 augmentation part       70.5653912 magnetization       0.0000004     -0.0000007      0.0002878

 Free energy of the ion-electron system (eV)
  ---------------------------------------------------
  alpha Z        PSCENC =       581.60253741
  Ewald energy   TEWEN  =    -15554.07415291
  -Hartree energ DENC   =    -10776.81914219
  -exchange      EXHF   =         0.00000000
  -V(xc)+E(xc)   XCENC  =       821.19361141
  PAW double counting   =     27941.00078369   -28864.00496676
  entropy T*S    EENTRO =         0.00000000
  eigenvalues    EBANDS =     -2735.92445070
  atomic energy  EATOM  =     28505.01627691
  ---------------------------------------------------
  free energy    TOTEN  =       -82.00950315 eV

  energy without entropy =      -82.00950315  energy(sigma->0) =      -82.00950315


--------------------------------------------------------------------------------------------------------




--------------------------------------- Iteration      1(  14)  ---------------------------------------


    POTLOK:  cpu time    0.0867: real time    0.0872
    SETDIJ:  cpu time    0.5943: real time    0.5961
    TRIAL :  cpu time    3.8407: real time    3.8641
 BZINTS: Fermi energy:  4.779960;172.000000 electrons
         Band energy:***********;  BLOECHL correction:  0.000000
 BZINTS: Fermi energy:  4.779960;172.000000 electrons
         Band energy:***********;  BLOECHL correction:  0.000000
    CORREC:  cpu time    2.3034: real time    2.3138
    CHARGE:  cpu time    1.1094: real time    1.1150
    --------------------------------------------
      LOOP:  cpu time    7.9548: real time    7.9984

 eigenvalue-minimisations  :     0
 total energy-change (2. order) :-0.7691233E-06  ( 0.4087478E-07)
 number of electron     171.9999955 magnetization       0.0000000      0.0000000      0.0000000
 augmentation part       70.5653912 magnetization       0.0000004     -0.0000006      0.0002878

 Free energy of the ion-electron system (eV)
  ---------------------------------------------------
  alpha Z        PSCENC =       581.60253741
  Ewald energy   TEWEN  =    -15554.07415291
  -Hartree energ DENC   =    -10776.81913829
  -exchange      EXHF   =         0.00000000
  -V(xc)+E(xc)   XCENC  =       821.19360966
  PAW double counting   =     27941.00075240   -28864.00493551
  entropy T*S    EENTRO =         0.00000000
  eigenvalues    EBANDS =     -2735.92445358
  atomic energy  EATOM  =     28505.01627691
  ---------------------------------------------------
  free energy    TOTEN  =       -82.00950392 eV

  energy without entropy =      -82.00950392  energy(sigma->0) =      -82.00950392


--------------------------------------------------------------------------------------------------------




--------------------------------------- Iteration      1(  15)  ---------------------------------------


    POTLOK:  cpu time    0.0975: real time    0.0980
    SETDIJ:  cpu time    0.5956: real time    0.5975
    TRIAL :  cpu time    3.8576: real time    3.8812
 BZINTS: Fermi energy:  4.779960;172.000000 electrons
         Band energy:***********;  BLOECHL correction:  0.000000
 BZINTS: Fermi energy:  4.779960;172.000000 electrons
         Band energy:***********;  BLOECHL correction:  0.000000
    CORREC:  cpu time    3.6258: real time    3.6433
    CHARGE:  cpu time    1.1103: real time    1.1159
    --------------------------------------------
      LOOP:  cpu time    9.3097: real time    9.3590

 eigenvalue-minimisations  :     0
 total energy-change (2. order) :-0.7187155E-06  (-0.2233983E-08)
 number of electron     171.9999955 magnetization       0.0000000      0.0000000      0.0000000
 augmentation part       70.5653912 magnetization       0.0000004     -0.0000006      0.0002878

 Free energy of the ion-electron system (eV)
  ---------------------------------------------------
  alpha Z        PSCENC =       581.60253741
  Ewald energy   TEWEN  =    -15554.07415291
  -Hartree energ DENC   =    -10776.81910967
  -exchange      EXHF   =         0.00000000
  -V(xc)+E(xc)   XCENC  =       821.19360845
  PAW double counting   =     27941.00051804   -28864.00470166
  entropy T*S    EENTRO =         0.00000000
  eigenvalues    EBANDS =     -2735.92448119
  atomic energy  EATOM  =     28505.01627691
  ---------------------------------------------------
  free energy    TOTEN  =       -82.00950463 eV

  energy without entropy =      -82.00950463  energy(sigma->0) =      -82.00950463


--------------------------------------------------------------------------------------------------------




--------------------------------------- Iteration      1(  16)  ---------------------------------------


    POTLOK:  cpu time    0.0856: real time    0.0861
    SETDIJ:  cpu time    0.5937: real time    0.5956
    TRIAL :  cpu time    3.8124: real time    3.8359
 BZINTS: Fermi energy:  4.779960;172.000000 electrons
         Band energy:***********;  BLOECHL correction:  0.000000
 BZINTS: Fermi energy:  4.779960;172.000000 electrons
         Band energy:***********;  BLOECHL correction:  0.000000
    CORREC:  cpu time    3.6179: real time    3.6357
    CHARGE:  cpu time    1.1150: real time    1.1206
    --------------------------------------------
      LOOP:  cpu time    9.2501: real time    9.3011

 eigenvalue-minimisations  :     0
 total energy-change (2. order) :-0.1894514E-06  (-0.1392544E-08)
 number of electron     171.9999955 magnetization       0.0000000      0.0000000      0.0000000
 augmentation part       70.5653912 magnetization       0.0000004     -0.0000006      0.0002878

 Free energy of the ion-electron system (eV)
  ---------------------------------------------------
  alpha Z        PSCENC =       581.60253741
  Ewald energy   TEWEN  =    -15554.07415291
  -Hartree energ DENC   =    -10776.81910901
  -exchange      EXHF   =         0.00000000
  -V(xc)+E(xc)   XCENC  =       821.19360803
  PAW double counting   =     27941.00051130   -28864.00469497
  entropy T*S    EENTRO =         0.00000000
  eigenvalues    EBANDS =     -2735.92448158
  atomic energy  EATOM  =     28505.01627691
  ---------------------------------------------------
  free energy    TOTEN  =       -82.00950482 eV

  energy without entropy =      -82.00950482  energy(sigma->0) =      -82.00950482


--------------------------------------------------------------------------------------------------------




--------------------------------------- Iteration      1(  17)  ---------------------------------------


    POTLOK:  cpu time    0.0864: real time    0.0869
    SETDIJ:  cpu time    0.5939: real time    0.5958
    TRIAL :  cpu time    3.8265: real time    3.8501
 BZINTS: Fermi energy:  4.779960;172.000000 electrons
         Band energy:***********;  BLOECHL correction:  0.000000
 BZINTS: Fermi energy:  4.779960;172.000000 electrons
         Band energy:***********;  BLOECHL correction:  0.000000
    CORREC:  cpu time    3.6220: real time    3.6398
    CHARGE:  cpu time    1.1149: real time    1.1203
    --------------------------------------------
      LOOP:  cpu time    9.2644: real time    9.3152

 eigenvalue-minimisations  :     0
 total energy-change (2. order) :-0.1689987E-06  (-0.1236364E-08)
 number of electron     171.9999955 magnetization       0.0000000      0.0000000      0.0000000
 augmentation part       70.5653912 magnetization       0.0000004     -0.0000006      0.0002878

 Free energy of the ion-electron system (eV)
  ---------------------------------------------------
  alpha Z        PSCENC =       581.60253741
  Ewald energy   TEWEN  =    -15554.07415291
  -Hartree energ DENC   =    -10776.81910888
  -exchange      EXHF   =         0.00000000
  -V(xc)+E(xc)   XCENC  =       821.19360765
  PAW double counting   =     27941.00050913   -28864.00469283
  entropy T*S    EENTRO =         0.00000000
  eigenvalues    EBANDS =     -2735.92448146
  atomic energy  EATOM  =     28505.01627691
  ---------------------------------------------------
  free energy    TOTEN  =       -82.00950499 eV

  energy without entropy =      -82.00950499  energy(sigma->0) =      -82.00950499


--------------------------------------------------------------------------------------------------------




--------------------------------------- Iteration      1(  18)  ---------------------------------------


    POTLOK:  cpu time    0.0867: real time    0.0872
    SETDIJ:  cpu time    0.5944: real time    0.5962
    TRIAL :  cpu time    3.8323: real time    3.8556
 BZINTS: Fermi energy:  4.779960;172.000000 electrons
         Band energy:***********;  BLOECHL correction:  0.000000
 BZINTS: Fermi energy:  4.779960;172.000000 electrons
         Band energy:***********;  BLOECHL correction:  0.000000
    CORREC:  cpu time    3.6191: real time    3.6369
    CHARGE:  cpu time    1.1109: real time    1.1164
    --------------------------------------------
      LOOP:  cpu time    9.2651: real time    9.3142

 eigenvalue-minimisations  :     0
 total energy-change (2. order) :-0.1506887E-06  (-0.1179106E-08)
 number of electron     171.9999955 magnetization       0.0000000      0.0000000      0.0000000
 augmentation part       70.5653912 magnetization       0.0000004     -0.0000006      0.0002878

 Free energy of the ion-electron system (eV)
  ---------------------------------------------------
  alpha Z        PSCENC =       581.60253741
  Ewald energy   TEWEN  =    -15554.07415291
  -Hartree energ DENC   =    -10776.81910876
  -exchange      EXHF   =         0.00000000
  -V(xc)+E(xc)   XCENC  =       821.19360731
  PAW double counting   =     27941.00050702   -28864.00469075
  entropy T*S    EENTRO =         0.00000000
  eigenvalues    EBANDS =     -2735.92448137
  atomic energy  EATOM  =     28505.01627691
  ---------------------------------------------------
  free energy    TOTEN  =       -82.00950514 eV

  energy without entropy =      -82.00950514  energy(sigma->0) =      -82.00950514


--------------------------------------------------------------------------------------------------------




--------------------------------------- Iteration      1(  19)  ---------------------------------------


    POTLOK:  cpu time    0.0861: real time    0.0866
    SETDIJ:  cpu time    0.5919: real time    0.5938
    TRIAL :  cpu time    3.8657: real time    3.8890
 BZINTS: Fermi energy:  4.779960;172.000000 electrons
         Band energy:***********;  BLOECHL correction:  0.000000
 BZINTS: Fermi energy:  4.779960;172.000000 electrons
         Band energy:***********;  BLOECHL correction:  0.000000
    CORREC:  cpu time    3.6140: real time    3.6314
    CHARGE:  cpu time    1.1090: real time    1.1144
    --------------------------------------------
      LOOP:  cpu time    9.2893: real time    9.3397

 eigenvalue-minimisations  :     0
 total energy-change (2. order) :-0.1428816E-06  (-0.1162627E-08)
 number of electron     171.9999955 magnetization       0.0000000      0.0000000      0.0000000
 augmentation part       70.5653912 magnetization       0.0000004     -0.0000006      0.0002878

 Free energy of the ion-electron system (eV)
  ---------------------------------------------------
  alpha Z        PSCENC =       581.60253741
  Ewald energy   TEWEN  =    -15554.07415291
  -Hartree energ DENC   =    -10776.81910863
  -exchange      EXHF   =         0.00000000
  -V(xc)+E(xc)   XCENC  =       821.19360699
  PAW double counting   =     27941.00050481   -28864.00468858
  entropy T*S    EENTRO =         0.00000000
  eigenvalues    EBANDS =     -2735.92448128
  atomic energy  EATOM  =     28505.01627691
  ---------------------------------------------------
  free energy    TOTEN  =       -82.00950529 eV

  energy without entropy =      -82.00950529  energy(sigma->0) =      -82.00950529


--------------------------------------------------------------------------------------------------------




--------------------------------------- Iteration      1(  20)  ---------------------------------------


    POTLOK:  cpu time    0.0863: real time    0.0868
    SETDIJ:  cpu time    0.5942: real time    0.5960
    TRIAL :  cpu time    3.8718: real time    3.8952
 BZINTS: Fermi energy:  4.779960;172.000000 electrons
         Band energy:***********;  BLOECHL correction:  0.000000
 BZINTS: Fermi energy:  4.779960;172.000000 electrons
         Band energy:***********;  BLOECHL correction:  0.000000
    CORREC:  cpu time    3.6298: real time    3.6475
    CHARGE:  cpu time    1.1057: real time    1.1114
    --------------------------------------------
      LOOP:  cpu time    9.3123: real time    9.3618

 eigenvalue-minimisations  :     0
 total energy-change (2. order) :-0.1360713E-06  (-0.1184801E-08)
 number of electron     171.9999955 magnetization       0.0000000      0.0000000      0.0000000
 augmentation part       70.5653912 magnetization       0.0000004     -0.0000006      0.0002878

 Free energy of the ion-electron system (eV)
  ---------------------------------------------------
[...]
  0.000  -0.000   0.000  -0.000   0.000   0.000  -0.000   0.000  -0.000   0.000   0.000   0.000  -0.000   0.000  -0.000   0.000
 pseudopotential strength for first ion, spin component:           3
 -0.000   0.000  -0.000   0.000   0.000   0.000  -0.000   0.000   0.000   0.000   0.000   0.000  -0.000   0.000   0.000   0.000
 -0.000   0.000  -0.000   0.000   0.000   0.000  -0.000   0.000   0.000   0.000   0.000   0.000  -0.000   0.000   0.000   0.000
  0.000   0.000   0.000   0.000  -0.000   0.000   0.000  -0.000   0.000  -0.000  -0.000   0.000   0.000  -0.000   0.000  -0.000
 -0.000   0.000  -0.000   0.000   0.000  -0.000  -0.000   0.000  -0.000  -0.000   0.000  -0.000  -0.000   0.000  -0.000  -0.000
  0.000   0.000   0.000   0.000   0.000  -0.000  -0.000  -0.000  -0.000  -0.000   0.000  -0.000  -0.000  -0.000  -0.000  -0.000
  0.000   0.000   0.000   0.000  -0.000   0.000   0.000  -0.000   0.000  -0.000  -0.000   0.000   0.000  -0.000   0.000  -0.000
 -0.000   0.000  -0.000   0.000   0.000  -0.000  -0.000   0.000  -0.000  -0.000   0.000  -0.000  -0.000   0.000  -0.000  -0.000
  0.000   0.000   0.000   0.000   0.000  -0.000  -0.000  -0.000  -0.000  -0.000   0.000  -0.000  -0.000  -0.000  -0.000  -0.000
 pseudopotential strength for first ion, spin component:           4
 39.547   0.000  45.418   0.000  -0.000   0.000  -0.001   0.000  -0.003   0.000  -0.001   0.000  -0.001   0.000  -0.004   0.000
 45.418   0.000  52.163   0.000  -0.001   0.000  -0.001   0.000  -0.004   0.000  -0.001   0.000  -0.001   0.000  -0.005   0.000
 -0.000   0.000  -0.001   0.000   8.209   0.000   0.002   0.000  -0.001   0.000  11.127   0.000   0.002   0.000  -0.001   0.000
 -0.001   0.000  -0.001   0.000   0.002   0.000   8.210   0.000  -0.000   0.000   0.002   0.000  11.128   0.000  -0.001   0.000
 -0.003   0.000  -0.004   0.000  -0.001   0.000  -0.000   0.000   8.210   0.000  -0.001   0.000  -0.001   0.000  11.128   0.000
 -0.001   0.000  -0.001   0.000  11.127   0.000   0.002   0.000  -0.001   0.000  15.101   0.000   0.003   0.000  -0.001   0.000
 -0.001   0.000  -0.001   0.000   0.002   0.000  11.128   0.000  -0.001   0.000   0.003   0.000  15.103   0.000  -0.001   0.000
 -0.004   0.000  -0.005   0.000  -0.001   0.000  -0.001   0.000  11.128   0.000  -0.001   0.000  -0.001   0.000  15.103   0.000
 total augmentation occupancy for first ion, spin component:           1
 10.658  -6.580   0.000   0.000  -0.583   0.000   0.000   0.161
 -6.580   4.764   0.000   0.000   0.480   0.000   0.000  -0.102
  0.000   0.000   3.534   0.081   0.000  -0.974  -0.043   0.000
  0.000   0.000   0.081   3.608   0.000  -0.043  -1.016   0.000
 -0.583   0.480   0.000   0.000   3.631   0.000   0.000  -1.029
  0.000   0.000  -0.974  -0.043   0.000   0.322   0.015   0.000
  0.000   0.000  -0.043  -1.016   0.000   0.015   0.338   0.000
  0.161  -0.102   0.000   0.000  -1.029   0.000   0.000   0.344
 total augmentation occupancy for first ion, spin component:           2
 -0.000   0.000   0.000  -0.000   0.000   0.000   0.000  -0.000
  0.000  -0.000   0.000   0.000  -0.000   0.000  -0.000   0.000
  0.000   0.000   0.000   0.000   0.000  -0.000  -0.000  -0.000
 -0.000   0.000   0.000   0.000   0.000  -0.000  -0.000   0.000
  0.000  -0.000   0.000   0.000   0.000   0.000  -0.000  -0.000
  0.000   0.000  -0.000  -0.000  -0.000   0.000   0.000   0.000
  0.000   0.000  -0.000  -0.000  -0.000   0.000   0.000   0.000
 -0.000   0.000   0.000   0.000  -0.000   0.000   0.000   0.000
 total augmentation occupancy for first ion, spin component:           3
  0.000   0.000   0.000  -0.000  -0.000  -0.000   0.000   0.000
 -0.000   0.000  -0.000   0.000   0.000   0.000  -0.000   0.000
  0.000  -0.000   0.000   0.000  -0.000   0.000   0.000   0.000
 -0.000   0.000   0.000   0.000   0.000  -0.000   0.000  -0.000
 -0.000   0.000  -0.000   0.000   0.000   0.000  -0.000   0.000
 -0.000   0.000   0.000  -0.000   0.000   0.000   0.000  -0.000
  0.000  -0.000   0.000   0.000  -0.000   0.000   0.000   0.000
  0.000   0.000   0.000  -0.000   0.000  -0.000   0.000   0.000
 total augmentation occupancy for first ion, spin component:           4
 -0.000   0.000   0.122   0.101  -0.000   0.075   0.075  -0.000
  0.000   0.000  -0.099  -0.080   0.000  -0.084  -0.083   0.000
  0.122  -0.099   0.000   0.000   0.005   0.000   0.000  -0.003
  0.101  -0.080   0.000  -0.000   0.007   0.000   0.000  -0.005
 -0.000   0.000   0.005   0.007   0.000  -0.002  -0.004   0.000
  0.075  -0.084   0.000   0.000  -0.002   0.000   0.000   0.014
  0.075  -0.083   0.000  -0.000  -0.004   0.000   0.000   0.014
  0.000   0.000  -0.003  -0.005   0.000   0.014   0.014   0.000


------------------------ aborting loop because EDIFF is reached ----------------------------------------


 


 total charge     
 
# of ion       s       p       d       tot
------------------------------------------
    1        1.314   2.404   0.000   3.717
    2        1.314   2.404   0.000   3.717
    3        1.313   2.406   0.000   3.719
    4        1.313   2.406   0.000   3.719
    5        1.314   2.404   0.000   3.717
    6        1.314   2.404   0.000   3.717
    7        1.313   2.406   0.000   3.719
    8        1.313   2.406   0.000   3.719
    9        0.256   6.197   8.918  15.371
   10        0.256   6.197   8.918  15.371
   11        0.256   6.197   8.918  15.371
   12        0.256   6.197   8.918  15.371
   13        0.347   6.343   5.811  12.501
   14        0.347   6.343   5.811  12.501
   15        0.347   6.343   5.811  12.501
   16        0.347   6.343   5.811  12.501
--------------------------------------------------
tot         12.920  69.398  58.915 141.233
 


 magnetization (x)
 
# of ion       s       p       d       tot
------------------------------------------
    1       -0.000   0.000   0.000  -0.000
    2        0.000  -0.000   0.000   0.000
    3       -0.000   0.000   0.000  -0.000
    4       -0.000   0.000   0.000   0.000
    5        0.000  -0.000   0.000   0.000
    6       -0.000   0.000   0.000  -0.000
    7       -0.000   0.000   0.000  -0.000
    8       -0.000   0.000   0.000   0.000
    9       -0.000   0.000  -0.000  -0.000
   10       -0.000   0.000   0.000   0.000
   11       -0.000   0.000  -0.000  -0.000
   12       -0.000   0.000   0.000   0.000
   13        0.000  -0.000  -0.000  -0.000
   14        0.000  -0.000  -0.000  -0.000
   15        0.000  -0.000  -0.000  -0.000
   16        0.000  -0.000  -0.000  -0.000
--------------------------------------------------
tot         -0.000  -0.000  -0.000  -0.000
 


 magnetization (y)
 
# of ion       s       p       d       tot
------------------------------------------
    1       -0.000   0.000   0.000   0.000
    2       -0.000   0.000   0.000   0.000
    3        0.000  -0.000   0.000   0.000
    4       -0.000   0.000   0.000  -0.000
    5       -0.000   0.000   0.000   0.000
    6       -0.000   0.000   0.000   0.000
    7        0.000  -0.000   0.000   0.000
    8       -0.000   0.000   0.000  -0.000
    9       -0.000   0.000  -0.000  -0.000
   10       -0.000   0.000  -0.000  -0.000
   11       -0.000   0.000  -0.000  -0.000
   12       -0.000   0.000  -0.000  -0.000
   13        0.000  -0.000   0.000   0.000
   14       -0.000   0.000   0.000   0.000
   15        0.000  -0.000   0.000   0.000
   16       -0.000   0.000   0.000   0.000
--------------------------------------------------
tot         -0.000   0.000   0.000   0.000
 


 magnetization (z)
 
# of ion       s       p       d       tot
------------------------------------------
    1        0.000  -0.003   0.000  -0.003
    2        0.000  -0.003   0.000  -0.003
    3       -0.000   0.004   0.000   0.003
    4       -0.000   0.003   0.000   0.002
    5        0.000  -0.003   0.000  -0.003
    6        0.000  -0.003   0.000  -0.003
    7       -0.000   0.004   0.000   0.003
    8       -0.000   0.003   0.000   0.002
    9        0.000   0.000   0.001   0.002
   10       -0.000  -0.000  -0.001  -0.001
   11        0.000   0.000   0.001   0.002
   12       -0.000  -0.000  -0.001  -0.001
   13        0.020   0.053   3.684   3.757
   14       -0.020  -0.053  -3.684  -3.757
   15        0.020   0.053   3.684   3.757
   16       -0.020  -0.053  -3.684  -3.757
--------------------------------------------------
tot          0.000  -0.000   0.000   0.000
 
    FORLOC:  cpu time    0.0030: real time    0.0030
    FORNL :  cpu time    1.1513: real time    1.1565
    STRESS:  cpu time    1.1098: real time    1.1148
    FORCOR:  cpu time    0.0774: real time    0.0778
    OFIELD:  cpu time    0.0003: real time    0.0003

  FORCE on cell =-STRESS in cart. coord.  units (eV):
  Direction    XX          YY          ZZ          XY          YZ          ZX
  --------------------------------------------------------------------------------------
  Alpha Z   581.60254   581.60254   581.60254
  Ewald   -5103.51833 -5327.85649 -5122.73454    -0.00000     0.00000     0.00000
  Hartree  3626.83283  3516.50223  3633.48405    -0.00000    -0.00000    -0.00000
  E(xc)   -1050.21916 -1050.35905 -1050.22166    -0.00000    -0.00000    -0.00000
  Local   -1396.21909 -1062.70931 -1381.11584    -0.00000    -0.00000    -0.00000
  n-local   120.77716   118.19587   120.85099    -0.26333    -0.04468    -0.01099
  augment  1181.76051  1180.25612  1179.76723     0.00000     0.00000     0.00000
  Kinetic  2035.97042  2044.36790  2035.62388    -0.88591     0.02394     0.00203
  Fock        0.00000     0.00000     0.00000     0.00000     0.00000     0.00000
  -------------------------------------------------------------------------------------
  Total      -3.01312    -0.00019    -2.74335     0.00000     0.00000     0.00000
  in kB     -16.56988    -0.00105   -15.08637     0.00000     0.00000     0.00000
  external pressure =      -10.55 kB  Pullay stress =        0.00 kB


 VOLUME and BASIS-vectors are now :
 -----------------------------------------------------------------------------
  energy-cutoff  :      700.00
  volume of cell :      291.34
      direct lattice vectors                 reciprocal lattice vectors
     5.363961369  0.000000000  0.000000000     0.186429381  0.000000000  0.000000000
     0.000000000  5.116114955  0.000000000     0.000000000  0.195460815  0.000000000
     0.000000000  0.000000000 10.616501439     0.000000000  0.000000000  0.094192989

  length of vectors
     5.363961369  5.116114955 10.616501439     0.186429381  0.195460815  0.094192989


 FORCES acting on ions:
    Electron-Ion                     Ewald-Force                    Non-Local-Force
 -----------------------------------------------------------------------------------------------
   0.431E+02 0.411E-11 0.132E-10   -.439E+02 0.142E-13 -.540E-12   0.801E+00 0.434E-18 0.000E+00
   -.431E+02 -.324E-11 0.137E-10   0.439E+02 -.284E-13 -.625E-12   -.801E+00 0.000E+00 0.000E+00
   -.386E-11 -.397E+02 0.135E-10   0.101E-12 0.404E+02 0.711E-13   -.434E-18 -.719E+00 0.000E+00
   0.471E-11 0.397E+02 0.135E-10   0.151E-13 -.404E+02 -.568E-13   -.325E-18 0.719E+00 -.434E-18
   -.431E+02 -.336E-11 0.133E-10   0.439E+02 -.222E-13 0.739E-12   -.801E+00 0.000E+00 0.000E+00
   0.431E+02 0.428E-11 0.124E-10   -.439E+02 -.684E-13 0.682E-12   0.801E+00 0.434E-18 0.000E+00
   -.356E-11 -.397E+02 0.140E-10   -.142E-13 0.404E+02 0.853E-13   -.434E-18 -.719E+00 0.000E+00
   0.403E-11 0.397E+02 0.138E-10   0.114E-12 -.404E+02 0.142E-12   -.325E-18 0.719E+00 -.434E-18
   -.551E-12 0.333E-13 0.206E+01   0.900E-05 -.221E-04 -.208E+01   -.108E-18 -.867E-18 0.214E-01
   0.975E-12 -.333E-13 -.206E+01   -.900E-05 -.221E-04 0.208E+01   0.000E+00 0.217E-18 -.214E-01
   0.114E-11 0.121E-10 0.206E+01   -.900E-05 0.221E-04 -.208E+01   -.108E-18 -.867E-18 0.214E-01
   -.593E-12 0.392E-11 -.206E+01   0.900E-05 0.221E-04 0.208E+01   0.000E+00 0.217E-18 -.214E-01
   -.170E-12 0.194E-12 -.492E+01   -.665E-05 0.184E-04 0.492E+01   0.867E-18 -.434E-18 -.173E-02
   0.509E-12 -.156E-12 0.492E+01   0.665E-05 0.184E-04 -.492E+01   0.173E-17 0.217E-18 0.173E-02
   0.572E-12 -.722E-12 -.492E+01   0.665E-05 -.184E-04 0.492E+01   0.867E-18 -.434E-18 -.173E-02
   -.148E-12 0.317E-12 0.492E+01   -.665E-05 -.184E-04 -.492E+01   0.173E-17 0.217E-18 0.173E-02
 -----------------------------------------------------------------------------------------------
   0.871E-11 0.247E-10 0.667E-08   -.419E-13 0.248E-13 0.123E-12   -.107E-15 -.113E-15 -.312E-16
 
 
 POSITION                                       TOTAL-FORCE (eV/Angst)
 -----------------------------------------------------------------------------------
      1.35343      1.27903      1.32706        -0.000002     -0.000000      0.000000
      4.01053      3.83709      1.32706         0.000002      0.000000     -0.000000
      1.34099      3.82582      9.28944        -0.000000     -0.000003     -0.000000
      4.02297      1.29029      9.28944        -0.000000      0.000003      0.000000
      1.32855      1.27903      6.63531         0.000002      0.000000     -0.000000
      4.03541      3.83709      6.63531        -0.000002     -0.000000      0.000000
      4.02297      1.26776      3.98119         0.000000     -0.000003     -0.000000
      1.34099      3.84835      3.98119        -0.000000      0.000003      0.000000
      0.00000      0.00000      5.30548        -0.000000      0.000000      0.000008
      2.68198      0.00000      2.65689        -0.000000      0.000000     -0.000008
      2.68198      2.55806     10.61373        -0.000000      0.000000      0.000008
      0.00000      2.55806      7.96514        -0.000000      0.000000     -0.000008
      0.00000      0.00000     10.61578        -0.000000      0.000000     -0.000009
      2.68198      0.00000      7.96310        -0.000000      0.000000      0.000009
      2.68198      2.55806      5.30753        -0.000000      0.000000     -0.000009
      0.00000      2.55806      2.65485        -0.000000      0.000000      0.000009
 -----------------------------------------------------------------------------------
    total drift:                                0.000000      0.000000      0.000000


--------------------------------------------------------------------------------------------------------



  FREE ENERGIE OF THE ION-ELECTRON SYSTEM (eV)
  ---------------------------------------------------
  free  energy   TOTEN  =       -82.00950666 eV

  energy  without entropy=      -82.00950666  energy(sigma->0) =      -82.00950666
 


--------------------------------------------------------------------------------------------------------


    POTLOK:  cpu time    0.6745: real time    0.6769


--------------------------------------------------------------------------------------------------------


 writing wavefunctions
     LOOP+:  cpu time  357.5210: real time  402.8302
    4ORBIT:  cpu time    0.0000: real time    0.0000
 


 total charge     
 
# of ion       s       p       d       tot
------------------------------------------
    1        1.314   2.404   0.000   3.717
    2        1.314   2.404   0.000   3.717
    3        1.313   2.406   0.000   3.719
    4        1.313   2.406   0.000   3.719
    5        1.314   2.404   0.000   3.717
    6        1.314   2.404   0.000   3.717
    7        1.313   2.406   0.000   3.719
    8        1.313   2.406   0.000   3.719
    9        0.256   6.197   8.918  15.371
   10        0.256   6.197   8.918  15.371
   11        0.256   6.197   8.918  15.371
   12        0.256   6.197   8.918  15.371
   13        0.347   6.343   5.811  12.501
   14        0.347   6.343   5.811  12.501
   15        0.347   6.343   5.811  12.501
   16        0.347   6.343   5.811  12.501
--------------------------------------------------
tot         12.920  69.398  58.915 141.233
 


 magnetization (x)
 
# of ion       s       p       d       tot
------------------------------------------
    1       -0.000   0.000   0.000  -0.000
    2        0.000  -0.000   0.000   0.000
    3       -0.000   0.000   0.000  -0.000
    4       -0.000   0.000   0.000   0.000
    5        0.000  -0.000   0.000   0.000
    6       -0.000   0.000   0.000  -0.000
    7       -0.000   0.000   0.000  -0.000
    8       -0.000   0.000   0.000   0.000
    9       -0.000   0.000  -0.000  -0.000
   10       -0.000   0.000   0.000   0.000
   11       -0.000   0.000  -0.000  -0.000
   12       -0.000   0.000   0.000   0.000
   13        0.000  -0.000  -0.000  -0.000
   14        0.000  -0.000  -0.000  -0.000
   15        0.000  -0.000  -0.000  -0.000
   16        0.000  -0.000  -0.000  -0.000
--------------------------------------------------
tot         -0.000  -0.000  -0.000  -0.000
 


 magnetization (y)
 
# of ion       s       p       d       tot
------------------------------------------
    1       -0.000   0.000   0.000   0.000
    2       -0.000   0.000   0.000   0.000
    3        0.000  -0.000   0.000   0.000
    4       -0.000   0.000   0.000  -0.000
    5       -0.000   0.000   0.000   0.000
    6       -0.000   0.000   0.000   0.000
    7        0.000  -0.000   0.000   0.000
    8       -0.000   0.000   0.000  -0.000
    9       -0.000   0.000  -0.000  -0.000
   10       -0.000   0.000  -0.000  -0.000
   11       -0.000   0.000  -0.000  -0.000
   12       -0.000   0.000  -0.000  -0.000
   13        0.000  -0.000   0.000   0.000
   14       -0.000   0.000   0.000   0.000
   15        0.000  -0.000   0.000   0.000
   16       -0.000   0.000   0.000   0.000
--------------------------------------------------
tot         -0.000   0.000   0.000   0.000
 


 magnetization (z)
 
# of ion       s       p       d       tot
------------------------------------------
    1        0.000  -0.003   0.000  -0.003
    2        0.000  -0.003   0.000  -0.003
    3       -0.000   0.004   0.000   0.003
    4       -0.000   0.003   0.000   0.002
    5        0.000  -0.003   0.000  -0.003
    6        0.000  -0.003   0.000  -0.003
    7       -0.000   0.004   0.000   0.003
    8       -0.000   0.003   0.000   0.002
    9        0.000   0.000   0.001   0.002
   10       -0.000  -0.000  -0.001  -0.001
   11        0.000   0.000   0.001   0.002
   12       -0.000  -0.000  -0.001  -0.001
   13        0.020   0.053   3.684   3.757
   14       -0.020  -0.053  -3.684  -3.757
   15        0.020   0.053   3.684   3.757
   16       -0.020  -0.053  -3.684  -3.757
--------------------------------------------------
tot          0.000  -0.000   0.000   0.000
 
 BZINTS: Fermi energy:  4.779960;172.000000 electrons
         Band energy:***********;  BLOECHL correction:  0.000000
 BZINTS: Fermi energy:  4.779960;172.000000 electrons
         Band energy:***********;  BLOECHL correction:  0.000000
 BZINTS: Fermi energy:  4.779960;172.000000 electrons
         Band energy:***********;  BLOECHL correction:  0.000000
 BZINTS: Fermi energy:  4.779960;172.000000 electrons
         Band energy:***********;  BLOECHL correction:  0.000000

 total amount of memory used by VASP MPI-rank0    80983. kBytes
=======================================================================

   base      :      30000. kBytes
   nonl-proj :       6196. kBytes
   fftplans  :       1447. kBytes
   grid      :       5898. kBytes
   one-center:         62. kBytes
   wavefun   :      37380. kBytes
 
  
  
 General timing and accounting informations for this job:
 ========================================================
  
                  Total CPU time used (sec):      388.256
                            User time (sec):      376.552
                          System time (sec):       11.704
                         Elapsed time (sec):      435.194
  
                   Maximum memory used (kb):      531432.
                   Average memory used (kb):           0.
  
                          Minor page faults:       320718
                          Major page faults:         2894
                 Voluntary context switches:         6375
