 vasp.5.4.4.18Apr17-6-g9f103f2a35 (build Oct 30 2023 17:30:16) complex          
  
 executed on             LinuxIFC date 2024.06.29  19:07:07
 running on  256 total cores
 distrk:  each k-point on  256 cores,    1 groups
 distr:  one band on NCORES_PER_BAND=   1 cores,  256 groups


--------------------------------------------------------------------------------------------------------


 INCAR:
 POTCAR:    PAW_PBE S 06Sep2000                   
 POTCAR:     PAW_PBE Cu_pv 06Sep2000              
 POTCAR:     PAW_PBE Fe_pv 02Aug2007              

 ----------------------------------------------------------------------------- 
|                                                                             |
|           W    W    AA    RRRRR   N    N  II  N    N   GGGG   !!!           |
|           W    W   A  A   R    R  NN   N  II  NN   N  G    G  !!!           |
|           W    W  A    A  R    R  N N  N  II  N N  N  G       !!!           |
|           W WW W  AAAAAA  RRRRR   N  N N  II  N  N N  G  GGG   !            |
|           WW  WW  A    A  R   R   N   NN  II  N   NN  G    G                |
|           W    W  A    A  R    R  N    N  II  N    N   GGGG   !!!           |
|                                                                             |
|      For optimal performance we recommend to set                            |
|        NCORE= 4 - approx SQRT( number of cores)                             |
|      NCORE specifies how many cores store one orbital (NPAR=cpu/NCORE).     |
|      This setting can  greatly improve the performance of VASP for DFT.     |
|      The default,   NCORE=1            might be grossly inefficient         |
|      on modern multi-core architectures or massively parallel machines.     |
|      Do your own testing !!!!                                               |
|      Unfortunately you need to use the default for GW and RPA calculations. |
|      (for HF NCORE is supported but not extensively tested yet)             |
|                                                                             |
 ----------------------------------------------------------------------------- 

 POTCAR:    PAW_PBE S 06Sep2000                   
   SHA256 =  0fc7481fb0695f01bdc6462160264c5c84044ae9ec85a907d398b887a2bc3132 S/
   COPYR  = (c) Copyright 06Sep2000 Georg Kresse                                
   COPYR  = This file is part of the software VASP. Any use, copying, and all ot
   COPYR  = If you do not have a valid VASP license, you may not use, copy or di
   VRHFIN =S : s2p4                                                             
   LEXCH  = PE                                                                  
   EATOM  =   276.8230 eV,   20.3459 Ry                                         
                                                                                
   TITEL  = PAW_PBE S 06Sep2000                                                 
   LULTRA =        F    use ultrasoft PP ?                                      
   IUNSCR =        1    unscreen: 0-lin 1-nonlin 2-no                           
   RPACOR =    1.500    partial core radius                                     
   POMASS =   32.066; ZVAL   =    6.000    mass and valenz                      
   RCORE  =    1.900    outmost cutoff radius                                   
   RWIGS  =    2.200; RWIGS  =    1.164    wigner-seitz radius (au A)           
   ENMAX  =  258.689; ENMIN  =  194.016 eV                                      
   ICORE  =        2    local potential                                         
   LCOR   =        T    correct aug charges                                     
   LPAW   =        T    paw PP                                                  
   EAUG   =  335.092                                                            
   DEXC   =    0.000                                                            
   RMAX   =    1.942    core radius for proj-oper                               
   RAUG   =    1.300    factor for augmentation sphere                          
   RDEP   =    1.954    radius for radial grids                                 
   RDEPT  =    1.744    core radius for aug-charge                              
                                                                                
   Atomic configuration                                                         
    6 entries                                                                   
     n  l   j            E        occ.                                          
     1  0  0.50     -2405.8406   2.0000                                         
     2  0  0.50      -211.7007   2.0000                                         
     2  1  1.50      -156.4958   6.0000                                         
     3  0  0.50       -17.2562   2.0000                                         
     3  1  0.50        -7.0085   4.0000                                         
     3  2  1.50        -6.8029   0.0000                                         
   Description                                                                  
     l       E           TYP  RCUT    TYP  RCUT                                 
     0    -17.2561641     23  1.900                                             
     0    -15.8743224     23  1.900                                             
     1     -7.0085400     23  1.900                                             
     1     -2.7779785     23  1.900                                             
     2     -6.8029130     23  1.900                                             
  local pseudopotential read in
  partial core-charges read in
  partial kinetic energy density read in
  atomic valenz-charges read in
  non local Contribution for L=           0  read in
    real space projection operators read in
  non local Contribution for L=           0  read in
    real space projection operators read in
  non local Contribution for L=           1  read in
    real space projection operators read in
  non local Contribution for L=           1  read in
    real space projection operators read in
    PAW grid and wavefunctions read in
 
   number of l-projection  operators is LMAX  =           4
   number of lm-projection operators is LMMAX =           8
 
 POTCAR:     PAW_PBE Cu_pv 06Sep2000              
   SHA256 =  cb7b504e2ea725fe1f25c85a9ac77d4012ce94cd394135b722c4e25ec297f1cb Cu
   COPYR  = (c) Copyright 06Sep2000 Georg Kresse                                
   COPYR  = This file is part of the software VASP. Any use, copying, and all ot
   COPYR  = If you do not have a valid VASP license, you may not use, copy or di
   VRHFIN =Cu: d10 p1                                                           
   LEXCH  = PE                                                                  
   EATOM  =  4120.1201 eV,  302.8203 Ry                                         
                                                                                
   TITEL  = PAW_PBE Cu_pv 06Sep2000                                             
   LULTRA =        F    use ultrasoft PP ?                                      
   IUNSCR =        1    unscreen: 0-lin 1-nonlin 2-no                           
   RPACOR =    1.500    partial core radius                                     
   POMASS =   63.546; ZVAL   =   17.000    mass and valenz                      
   RCORE  =    2.000    outmost cutoff radius                                   
   RWIGS  =    2.000; RWIGS  =    1.058    wigner-seitz radius (au A)           
   ENMAX  =  368.648; ENMIN  =  276.486 eV                                      
   RCLOC  =    1.304    cutoff for local pot                                    
   LCOR   =        T    correct aug charges                                     
   LPAW   =        T    paw PP                                                  
   EAUG   =  758.233                                                            
   DEXC   =    0.000                                                            
   RMAX   =    2.046    core radius for proj-oper                               
   RAUG   =    1.300    factor for augmentation sphere                          
   RDEP   =    2.025    radius for radial grids                                 
   RDEPT  =    1.558    core radius for aug-charge                              
                                                                                
   Atomic configuration                                                         
    8 entries                                                                   
     n  l   j            E        occ.                                          
     1  0  0.50     -8850.2467   2.0000                                         
     2  0  0.50     -1062.3498   2.0000                                         
     2  1  1.50      -916.8226   6.0000                                         
     3  0  0.50      -114.6929   2.0000                                         
     3  1  1.50       -72.1325   6.0000                                         
     3  2  2.50        -5.0394  10.0000                                         
     4  0  0.50        -4.6097   1.0000                                         
     4  3  2.50        -1.3606   0.0000                                         
   Description                                                                  
     l       E           TYP  RCUT    TYP  RCUT                                 
     1    -72.1324777     23  1.700                                             
     1     -1.3605826     23  1.700                                             
     2     -5.0393776     23  2.000                                             
     2     -6.3999602     23  2.000                                             
     0     -4.6097062     23  1.800                                             
     0     14.1620818     23  1.800                                             
  local pseudopotential read in
  partial core-charges read in
  partial kinetic energy density read in
  atomic valenz-charges read in
  non local Contribution for L=           1  read in
    real space projection operators read in
  non local Contribution for L=           1  read in
    real space projection operators read in
  non local Contribution for L=           2  read in
    real space projection operators read in
  non local Contribution for L=           2  read in
    real space projection operators read in
  non local Contribution for L=           0  read in
    real space projection operators read in
  non local Contribution for L=           0  read in
    real space projection operators read in
    PAW grid and wavefunctions read in
 
   number of l-projection  operators is LMAX  =           6
   number of lm-projection operators is LMMAX =          18
 
 POTCAR:     PAW_PBE Fe_pv 02Aug2007              
   SHA256 =  5d22e414b1f82158bf2c7ecb8b97b28fd0923e48cadc1c3bf74d524558f5dd32 Fe
   COPYR  = (c) Copyright 02Aug2007 Georg Kresse                                
   COPYR  = This file is part of the software VASP. Any use, copying, and all ot
   COPYR  = If you do not have a valid VASP license, you may not use, copy or di
   VRHFIN =Fe:  3pd7s1                                                          
   LEXCH  = PE                                                                  
   EATOM  =  2457.4239 eV,  180.6156 Ry                                         
                                                                                
   TITEL  = PAW_PBE Fe_pv 02Aug2007                                             
   LULTRA =        F    use ultrasoft PP ?                                      
   IUNSCR =        1    unscreen: 0-lin 1-nonlin 2-no                           
   RPACOR =    1.750    partial core radius                                     
   POMASS =   55.847; ZVAL   =   14.000    mass and valenz                      
   RCORE  =    2.200    outmost cutoff radius                                   
   RWIGS  =    2.200; RWIGS  =    1.164    wigner-seitz radius (au A)           
   ENMAX  =  293.238; ENMIN  =  219.928 eV                                      
   ICORE  =        3    local potential                                         
   LCOR   =        T    correct aug charges                                     
   LPAW   =        T    paw PP                                                  
   EAUG   =  578.342                                                            
   DEXC   =    0.000                                                            
   RMAX   =    2.249    core radius for proj-oper                               
   RAUG   =    1.300    factor for augmentation sphere                          
   RDEP   =    2.296    radius for radial grids                                 
   RDEPT  =    1.766    core radius for aug-charge                              
                                                                                
   Atomic configuration                                                         
    8 entries                                                                   
     n  l   j            E        occ.                                          
     1  0  0.50     -6993.8440   2.0000                                         
     2  0  0.50      -814.6047   2.0000                                         
     2  1  1.50      -693.3689   6.0000                                         
     3  0  0.50       -89.4732   2.0000                                         
     3  1  1.50       -55.6373   6.0000                                         
     3  2  2.50        -3.8151   7.0000                                         
     4  0  0.50        -4.2551   1.0000                                         
     4  3  2.50        -1.3606   0.0000                                         
   Description                                                                  
     l       E           TYP  RCUT    TYP  RCUT                                 
     1    -55.6372668     23  2.000                                             
     1     -5.4423304     23  2.000                                             
     2     -3.8151096     23  2.200                                             
     2     -5.1756922     23  2.200                                             
     0     -4.2550951     23  2.200                                             
     0     27.2116520     23  2.200                                             
     3     -1.3605826     23  2.200                                             
  local pseudopotential read in
  partial core-charges read in
  partial kinetic energy density read in
  atomic valenz-charges read in
  non local Contribution for L=           1  read in
    real space projection operators read in
  non local Contribution for L=           1  read in
    real space projection operators read in
  non local Contribution for L=           2  read in
    real space projection operators read in
  non local Contribution for L=           2  read in
    real space projection operators read in
  non local Contribution for L=           0  read in
    real space projection operators read in
  non local Contribution for L=           0  read in
    real space projection operators read in
    PAW grid and wavefunctions read in
 
   number of l-projection  operators is LMAX  =           6
   number of lm-projection operators is LMMAX =          18
 

 ----------------------------------------------------------------------------- 
|                                                                             |
|  ADVICE TO THIS USER RUNNING 'VASP/VAMP'   (HEAR YOUR MASTER'S VOICE ...):  |
|                                                                             |
|      You have a (more or less) 'large supercell' and for larger cells       |
|      it might be more efficient to use real space projection opertators     |
|      So try LREAL= Auto  in the INCAR   file.                               |
|      Mind:          For very  accurate calculation you might also keep the  |
|      reciprocal projection scheme          (i.e. LREAL=.FALSE.)             |
|                                                                             |
 ----------------------------------------------------------------------------- 


 ----------------------------------------------------------------------------- 
|                                                                             |
|  ADVICE TO THIS USER RUNNING 'VASP/VAMP'   (HEAR YOUR MASTER'S VOICE ...):  |
|                                                                             |
|      You enforced a specific xc-type in the INCAR file,                     |
|      a different type was found on the POTCAR file                          |
|          I HOPE YOU KNOW, WHAT YOU ARE  DOING                               |
|                                                                             |
 ----------------------------------------------------------------------------- 

  PAW_PBE S 06Sep2000                   :
 energy of atom  1       EATOM= -276.8230
 kinetic energy error for atom=    0.0007 (will be added to EATOM!!)
   PAW_PBE Cu_pv 06Sep2000              :
 energy of atom  2       EATOM=-4120.1201
 kinetic energy error for atom=    0.0094 (will be added to EATOM!!)
   PAW_PBE Fe_pv 02Aug2007              :
 energy of atom  3       EATOM=-2457.4239
 kinetic energy error for atom=    0.0025 (will be added to EATOM!!)
 
 
 POSCAR: Fe16 Cu16 S32                           
  positions in direct lattice
  No initial velocities read in
 exchange correlation table for  LEXCH =       14
   RHO(1)=    0.500       N(1)  =     2000
   RHO(2)=  100.500       N(2)  =     4000
 


--------------------------------------------------------------------------------------------------------


 ion  position               nearest neighbor table
   1  0.126  0.125  0.123-  37 2.26  41 2.27  61 2.27  49 2.28
   2  0.626  0.125  0.123-  38 2.26  42 2.27  62 2.27  50 2.28
   3  0.126  0.625  0.123-  39 2.26  43 2.27  63 2.27  51 2.28
   4  0.626  0.625  0.123-  40 2.26  44 2.27  64 2.27  52 2.28
   5  0.374  0.375  0.123-  39 2.26  41 2.27  62 2.27  52 2.28
   6  0.874  0.375  0.123-  40 2.26  42 2.27  61 2.27  51 2.28
   7  0.374  0.875  0.123-  37 2.26  43 2.27  64 2.27  50 2.28
   8  0.874  0.875  0.123-  38 2.26  44 2.27  63 2.27  49 2.28
   9  0.125  0.374  0.873-  41 2.26  45 2.27  51 2.27  55 2.28
  10  0.625  0.374  0.873-  42 2.26  46 2.27  52 2.27  56 2.28
  11  0.125  0.874  0.873-  43 2.26  47 2.27  49 2.27  53 2.28
  12  0.625  0.874  0.873-  44 2.26  48 2.27  50 2.27  54 2.28
  13  0.375  0.126  0.873-  41 2.26  46 2.27  50 2.27  53 2.28
  14  0.875  0.126  0.873-  42 2.26  45 2.27  49 2.27  54 2.28
  15  0.375  0.626  0.873-  43 2.26  48 2.27  52 2.27  55 2.28
  16  0.875  0.626  0.873-  44 2.26  47 2.27  51 2.27  56 2.28
  17  0.124  0.125  0.623-  45 2.26  33 2.27  53 2.27  57 2.28
  18  0.624  0.125  0.623-  46 2.26  34 2.27  54 2.27  58 2.28
  19  0.124  0.625  0.623-  47 2.26  35 2.27  55 2.27  59 2.28
  20  0.624  0.625  0.623-  48 2.26  36 2.27  56 2.27  60 2.28
  21  0.376  0.375  0.623-  46 2.26  36 2.27  55 2.27  57 2.28
  22  0.876  0.375  0.623-  45 2.26  35 2.27  56 2.27  58 2.28
  23  0.376  0.875  0.623-  48 2.26  34 2.27  53 2.27  59 2.28
  24  0.876  0.875  0.623-  47 2.26  33 2.27  54 2.27  60 2.28
  25  0.375  0.124  0.373-  34 2.26  37 2.27  57 2.27  62 2.28
  26  0.875  0.124  0.373-  33 2.26  38 2.27  58 2.27  61 2.28
  27  0.375  0.624  0.373-  36 2.26  39 2.27  59 2.27  64 2.28
  28  0.875  0.624  0.373-  35 2.26  40 2.27  60 2.27  63 2.28
  29  0.125  0.376  0.373-  35 2.26  39 2.27  57 2.27  61 2.28
  30  0.625  0.376  0.373-  36 2.26  40 2.27  58 2.27  62 2.28
  31  0.125  0.876  0.373-  33 2.26  37 2.27  59 2.27  63 2.28
  32  0.625  0.876  0.373-  34 2.26  38 2.27  60 2.27  64 2.28
  33  0.000  0.000  0.501-  26 2.26  31 2.26  17 2.27  24 2.27
  34  0.500  0.000  0.501-  25 2.26  32 2.26  18 2.27  23 2.27
  35  0.000  0.500  0.501-  28 2.26  29 2.26  19 2.27  22 2.27
  36  0.500  0.500  0.501-  27 2.26  30 2.26  20 2.27  21 2.27
  37  0.250  0.000  0.251-   1 2.26   7 2.26  25 2.27  31 2.27
  38  0.750  0.000  0.251-   2 2.26   8 2.26  26 2.27  32 2.27
  39  0.250  0.500  0.251-   3 2.26   5 2.26  27 2.27  29 2.27
  40  0.750  0.500  0.251-   4 2.26   6 2.26  28 2.27  30 2.27
  41  0.250  0.250  0.001-   9 2.26  13 2.26   1 2.27   5 2.27
  42  0.750  0.250  0.001-  10 2.26  14 2.26   2 2.27   6 2.27
  43  0.250  0.750  0.001-  11 2.26  15 2.26   3 2.27   7 2.27
  44  0.750  0.750  0.001-  12 2.26  16 2.26   4 2.27   8 2.27
  45  0.000  0.250  0.751-  17 2.26  22 2.26   9 2.27  14 2.27
  46  0.500  0.250  0.751-  18 2.26  21 2.26  10 2.27  13 2.27
  47  0.000  0.750  0.751-  19 2.26  24 2.26  11 2.27  16 2.27
  48  0.500  0.750  0.751-  20 2.26  23 2.26  12 2.27  15 2.27
  49  0.000  0.000  0.002-  11 2.27  14 2.27   1 2.28   8 2.28
  50  0.500  0.000  0.002-  12 2.27  13 2.27   2 2.28   7 2.28
  51  0.000  0.500  0.002-   9 2.27  16 2.27   3 2.28   6 2.28
  52  0.500  0.500  0.002-  10 2.27  15 2.27   4 2.28   5 2.28
  53  0.250  0.000  0.752-  17 2.27  23 2.27  11 2.28  13 2.28
  54  0.750  0.000  0.752-  18 2.27  24 2.27  12 2.28  14 2.28
  55  0.250  0.500  0.752-  19 2.27  21 2.27   9 2.28  15 2.28
  56  0.750  0.500  0.752-  20 2.27  22 2.27  10 2.28  16 2.28
  57  0.250  0.250  0.502-  25 2.27  29 2.27  17 2.28  21 2.28
  58  0.750  0.250  0.502-  26 2.27  30 2.27  18 2.28  22 2.28
  59  0.250  0.750  0.502-  27 2.27  31 2.27  19 2.28  23 2.28
  60  0.750  0.750  0.502-  28 2.27  32 2.27  20 2.28  24 2.28
  61  0.000  0.250  0.252-   1 2.27   6 2.27  26 2.28  29 2.28
  62  0.500  0.250  0.252-   2 2.27   5 2.27  25 2.28  30 2.28
  63  0.000  0.750  0.252-   3 2.27   8 2.27  28 2.28  31 2.28
  64  0.500  0.750  0.252-   4 2.27   7 2.27  27 2.28  32 2.28
 
  LATTYP: Found a base centered orthorhombic cell.
 ALAT       =    14.6282828495
 B/A-ratio  =     1.0318982714
 C/A-ratio  =     0.7123066396
  
  Lattice vectors:
  
 A1 = (  10.5087320000,   0.1649740000,   0.0000000000)
 A2 = (  -0.1649740000, -10.5087320000,   0.0000000000)
 A3 = (   0.0000000000,   0.0000000000, -10.4198230000)


Analysis of symmetry for initial positions (statically):
=====================================================================
 Subroutine PRICEL returns following result:
 
  LATTYP: Found a face centered orthorhombic cell.
 ALAT       =     7.3141414248
 B/A-ratio  =     1.0318982714
 C/A-ratio  =     1.4246132792
  
  Lattice vectors:
  
 A1 = (  -2.6684265000,  -2.6684265000,   5.2099115000)
 A2 = (  -2.5859395000,   2.5859395000,   5.2099115000)
 A3 = (  -5.2543660000,  -0.0824870000,  -0.0000000000)
 
   8 primitive cells build up your supercell.
 

 Routine SETGRP: Setting up the symmetry group for a 
 base centered orthorhombic supercell.


 Subroutine GETGRP returns: Found  4 space group operations
 (whereof  2 operations were pure point group operations)
 out of a pool of  8 trial point group operations.


The static configuration has the point symmetry C_2 .
 The point group associated with its full space group is C_2v.


Analysis of symmetry for dynamics (positions and initial velocities):
=====================================================================
 Subroutine PRICEL returns following result:
 
  LATTYP: Found a face centered orthorhombic cell.
 ALAT       =     7.3141414248
 B/A-ratio  =     1.0318982714
 C/A-ratio  =     1.4246132792
  
  Lattice vectors:
  
 A1 = (  -2.6684265000,  -2.6684265000,   5.2099115000)
 A2 = (  -2.5859395000,   2.5859395000,   5.2099115000)
 A3 = (  -5.2543660000,  -0.0824870000,  -0.0000000000)
 
   8 primitive cells build up your supercell.
 

 Routine SETGRP: Setting up the symmetry group for a 
 base centered orthorhombic supercell.


 Subroutine GETGRP returns: Found  4 space group operations
 (whereof  2 operations were pure point group operations)
 out of a pool of  8 trial point group operations.


The dynamic configuration has the point symmetry C_2 .
 The point group associated with its full space group is C_2v.


Analysis of structural, dynamic, and magnetic symmetry:
=====================================================================
 Subroutine PRICEL returns following result:
 
  LATTYP: Found a face centered orthorhombic cell.
 ALAT       =     7.3141414248
 B/A-ratio  =     1.0318982714
 C/A-ratio  =     1.4246132792
  
  Lattice vectors:
  
 A1 = (  -2.6684265000,  -2.6684265000,   5.2099115000)
 A2 = (  -2.5859395000,   2.5859395000,   5.2099115000)
 A3 = (  -5.2543660000,  -0.0824870000,  -0.0000000000)
 
   8 primitive cells build up your supercell.
 

 Routine SETGRP: Setting up the symmetry group for a 
 base centered orthorhombic supercell.


 Subroutine GETGRP returns: Found  4 space group operations
 (whereof  2 operations were pure point group operations)
 out of a pool of  8 trial point group operations.


The magnetic configuration has the point symmetry C_2 .
 The point group associated with its full space group is C_2v.


 Subroutine INISYM returns: Found  4 space group operations
 (whereof  2 operations are pure point group operations),
 and found     8 'primitive' translations

 
 
 KPOINTS: Automatic mesh                          

Automatic generation of k-mesh.
Space group operators:
 irot       det(A)        alpha          n_x          n_y          n_z        tau_x        tau_y        tau_z
    1     1.000000     0.000000     1.000000     0.000000     0.000000     0.000000     0.000000     0.000000
    2     1.000000   180.000000     0.000000     0.000000     1.000000     0.000000     0.000000     0.000000
    3    -1.000000   180.000000     0.707107     0.707107     0.000000    -0.750000    -0.000000     0.750000
    4    -1.000000   180.000000     0.707107    -0.707107     0.000000    -0.750000    -0.000000     0.750000
 
 Subroutine IBZKPT returns following result:
 ===========================================
 
 Found      6 irreducible k-points:
 
 Following reciprocal coordinates:
            Coordinates               Weight
  0.000000  0.000000  0.000000      1.000000
  0.500000  0.000000  0.000000      2.000000
  0.500000  0.500000  0.000000      1.000000
  0.000000  0.000000  0.500000      1.000000
  0.500000  0.000000  0.500000      2.000000
  0.500000  0.500000  0.500000      1.000000
 
 Following cartesian coordinates:
            Coordinates               Weight
  0.000000  0.000000  0.000000      1.000000
  0.047591 -0.000747  0.000000      2.000000
  0.046844  0.046844  0.000000      1.000000
  0.000000  0.000000  0.047985      1.000000
  0.047591 -0.000747  0.047985      2.000000
  0.046844  0.046844  0.047985      1.000000
 
 TETIRR: Found     12 inequivalent tetrahedra from       48
 
 Subroutine IBZKPT_HF returns following result:
 ==============================================
 
 Found      8 k-points in 1st BZ
 the following      8 k-points will be used (e.g. in the exchange kernel)
 Following reciprocal coordinates:   # in IRBZ
  0.000000  0.000000  0.000000    0.12500000   1 t-inv F
  0.500000  0.000000  0.000000    0.12500000   2 t-inv F
  0.500000  0.500000  0.000000    0.12500000   3 t-inv F
  0.000000  0.000000  0.500000    0.12500000   4 t-inv F
  0.500000  0.000000  0.500000    0.12500000   5 t-inv F
  0.500000  0.500000  0.500000    0.12500000   6 t-inv F
  0.000000 -0.500000  0.000000    0.12500000   2 t-inv F spinflp
  0.000000 -0.500000  0.500000    0.12500000   5 t-inv F spinflp


--------------------------------------------------------------------------------------------------------




 Dimension of arrays:
   k-points           NKPTS =      6   k-points in BZ     NKDIM =      6   number of bands    NBANDS=    512
   number of dos      NEDOS =    301   number of ions     NIONS =     64
   non local maximal  LDIM  =      6   non local SUM 2l+1 LMDIM =     18
   total plane-waves  NPLWV = 829440
   max r-space proj   IRMAX =      1   max aug-charges    IRDMAX=  22912
   dimension x,y,z NGX =    96 NGY =   96 NGZ =   90
   dimension x,y,z NGXF=   192 NGYF=  192 NGZF=  180
   support grid    NGXF=   192 NGYF=  192 NGZF=  180
   ions per type =              32  16  16
   NGX,Y,Z   is equivalent  to a cutoff of  15.19, 15.19, 14.36 a.u.
   NGXF,Y,Z  is equivalent  to a cutoff of  30.37, 30.37, 28.72 a.u.

 SYSTEM =  CuFeS2                                  
 POSCAR =  Fe16 Cu16 S32                           

 Startparameter for this run:
   NWRITE =      2    write-flag & timer
   PREC   = accura    normal or accurate (medium, high low for compatibility)
   ISTART =      1    job   : 0-new  1-cont  2-samecut
   ICHARG =      1    charge: 1-file 2-atom 10-const
   ISPIN  =      2    spin polarized calculation?
   LNONCOLLINEAR =      F non collinear calculations
   LSORBIT =      F    spin-orbit coupling
   INIWAV =      1    electr: 0-lowe 1-rand  2-diag
   LASPH  =      F    aspherical Exc in radial PAW
   METAGGA=      F    non-selfconsistent MetaGGA calc.

 Electronic Relaxation 1
   ENCUT  =  700.0 eV  51.45 Ry    7.17 a.u.  22.67 22.67 22.48*2*pi/ulx,y,z
   ENINI  =  700.0     initial cutoff
   ENAUG  =  758.2 eV  augmentation charge cutoff
   NELM   =    500;   NELMIN=  2; NELMDL=  0     # of ELM steps 
   EDIFF  = 0.1E-07   stopping-criterion for ELM
   LREAL  =      F    real-space projection
   NLSPLINE    = F    spline interpolate recip. space projectors
   LCOMPAT=      F    compatible to vasp.4.4
   GGA_COMPAT  = T    GGA compatible to vasp.4.4-vasp.4.6
   LMAXPAW     = -100 max onsite density
   LMAXMIX     =    4 max onsite mixed and CHGCAR
   VOSKOWN=      0    Vosko Wilk Nusair interpolation
   ROPT   =    0.00000   0.00000   0.00000
 Ionic relaxation
   EDIFFG = -.1E-04   stopping-criterion for IOM
   NSW    =      0    number of steps for IOM
   NBLOCK =      1;   KBLOCK =      1    inner block; outer block 
   IBRION =     -1    ionic relax: 0-MD 1-quasi-New 2-CG
   NFREE  =      0    steps in history (QN), initial steepest desc. (CG)
   ISIF   =      2    stress and relaxation
   IWAVPR =     10    prediction:  0-non 1-charg 2-wave 3-comb
   ISYM   =      2    0-nonsym 1-usesym 2-fastsym
   LCORR  =      T    Harris-Foulkes like correction to forces

   POTIM  = 0.5000    time-step for ionic-motion
   TEIN   =    0.0    initial temperature
   TEBEG  =    0.0;   TEEND  =   0.0 temperature during run
   SMASS  =  -3.00    Nose mass-parameter (am)
   estimated Nose-frequenzy (Omega)   =  0.10E-29 period in steps =****** mass=  -0.252E-26a.u.
   SCALEE = 1.0000    scale energy and forces
   NPACO  =    256;   APACO  = 16.0  distance and # of slots for P.C.
   PSTRESS=    0.0 pullay stress

  Mass of Ions in am
   POMASS =  32.07 63.55 55.85
  Ionic Valenz
   ZVAL   =   6.00 17.00 14.00
  Atomic Wigner-Seitz radii
   RWIGS  =  -1.00 -1.00 -1.00
  virtual crystal weights 
   VCA    =   1.00  1.00  1.00
   NELECT =     688.0000    total number of electrons
   NUPDOWN=      -1.0000    fix difference up-down

 DOS related values:
   EMIN   =  10.00;   EMAX   =-10.00  energy-range for DOS
   EFERMI =   0.00
   ISMEAR =    -5;   SIGMA  =   0.03  broadening in eV -4-tet -1-fermi 0-gaus

 Electronic relaxation 2 (details)
   IALGO  =     38    algorithm
   LDIAG  =      T    sub-space diagonalisation (order eigenvalues)
   LSUBROT=      F    optimize rotation matrix (better conditioning)
   TURBO    =      0    0=normal 1=particle mesh
   IRESTART =      0    0=no restart 2=restart with 2 vectors
   NREBOOT  =      0    no. of reboots
   NMIN     =      0    reboot dimension
   EREF     =   0.00    reference energy to select bands
   IMIX   =      4    mixing-type and parameters
     AMIX     =   0.40;   BMIX     =  1.00
     AMIX_MAG =   1.60;   BMIX_MAG =  1.00
     AMIN     =   0.10
     WC   =   100.;   INIMIX=   1;  MIXPRE=   1;  MAXMIX= -45

 Intra band minimization:
   WEIMIN = 0.0000     energy-eigenvalue tresh-hold
   EBREAK =  0.49E-11  absolut break condition
   DEPER  =   0.30     relativ break condition  

   TIME   =   0.40     timestep for ELM

  volume/ion in A,a.u.               =      17.98       121.30
  Fermi-wavevector in a.u.,A,eV,Ry     =   1.379282  2.606465 25.883972  1.902418
  Thomas-Fermi vector in A             =   2.504266
 
 Write flags
   LWAVE        =      T    write WAVECAR
   LDOWNSAMPLE  =      F    k-point downsampling of WAVECAR
   LCHARG       =      T    write CHGCAR
   LVTOT        =      F    write LOCPOT, total local potential
   LVHAR        =      F    write LOCPOT, Hartree potential only
   LELF         =      F    write electronic localiz. function (ELF)
   LORBIT       =     11    0 simple, 1 ext, 2 COOP (PROOUT), +10 PAW based schemes


 Dipole corrections
   LMONO  =      F    monopole corrections only (constant potential shift)
   LDIPOL =      F    correct potential (dipole corrections)
   IDIPOL =      0    1-x, 2-y, 3-z, 4-all directions 
   EPSILON=  1.0000000 bulk dielectric constant

 LDA+U is selected, type is set to LDAUTYPE =  2
   angular momentum for each species LDAUL =     2    2    2
   U (eV)           for each species LDAUU =   0.0  0.1  4.7
   J (eV)           for each species LDAUJ =   0.0  0.0  0.0
 Exchange correlation treatment:
   GGA     =    PS    GGA type
   LEXCH   =    14    internal setting for exchange type
   VOSKOWN=      0    Vosko Wilk Nusair interpolation
   LHFCALC =     F    Hartree Fock is set to
   LHFONE  =     F    Hartree Fock one center treatment
   AEXX    =    0.0000 exact exchange contribution

 Linear response parameters
   LEPSILON=     F    determine dielectric tensor
   LRPA    =     F    only Hartree local field effects (RPA)
   LNABLA  =     F    use nabla operator in PAW spheres
   LVEL    =     F    velocity operator in full k-point grid
   LINTERFAST=   F  fast interpolation
   KINTER  =     0    interpolate to denser k-point grid
   CSHIFT  =0.1000    complex shift for real part using Kramers Kronig
   OMEGAMAX=  -1.0    maximum frequency
   DEG_THRESHOLD= 0.2000000E-02 threshold for treating states as degnerate
   RTIME   =   -0.100 relaxation time in fs
  (WPLASMAI=    0.000 imaginary part of plasma frequency in eV, 0.658/RTIME)
   DFIELD  = 0.0000000 0.0000000 0.0000000 field for delta impulse in time
 
 Orbital magnetization related:
   ORBITALMAG=     F  switch on orbital magnetization
   LCHIMAG   =     F  perturbation theory with respect to B field
   DQ        =  0.001000  dq finite difference perturbation B field
   LLRAUG    =     F  two centre corrections for induced B field

 PEAD related settings:
   LPEAD      =     T    switch on PEAD
   IPEAD      =     4    finite difference order for dpsi/dk
   LCALCPOL   =     T    calculate macroscopic polarization
   LCALCEPS   =     F    calculate dielectric tensor
   EFIELD_PEAD=    0.0000    0.0000    0.0000
   SKIP_EDOTP =     F
   LRPA       =     F
   SKIP_SCF   =     F


--------------------------------------------------------------------------------------------------------


 Static calculation
 charge density and potential will be updated during run
 spin polarized calculation
 Variant of blocked Davidson
 Davidson routine will perform the subspace rotation
 perform sub-space diagonalisation
    after iterative eigenvector-optimisation
 modified Broyden-mixing scheme, WC =      100.0
 initial mixing is a Kerker type mixing with AMIX =  0.4000 and BMIX =      1.0000
 Hartree-type preconditioning will be used
 using additional bands          168
 reciprocal scheme for non local part
 use partial core corrections
 calculate Harris-corrections to forces 
   (improved forces if not selfconsistent)
 use gradient corrections 
 use of overlap-Matrix (Vanderbilt PP)
 Fermi weights with tetrahedron method with Bloechl corrections


--------------------------------------------------------------------------------------------------------


  energy-cutoff  :      700.00
  volume of cell :     1150.41
      direct lattice vectors                 reciprocal lattice vectors
    10.508732000  0.164974000  0.000000000     0.095182417 -0.001494245  0.000000000
     0.164974000 10.508732000  0.000000000    -0.001494245  0.095182417  0.000000000
     0.000000000  0.000000000 10.419823000     0.000000000  0.000000000  0.095970920

  length of vectors
    10.510026863 10.510026863 10.419823000     0.095194145  0.095194145  0.095970920


 
 old parameters found on file WAVECAR:
  energy-cutoff  :      700.00
  volume of cell :     1150.41
      direct lattice vectors                 reciprocal lattice vectors
    10.508732000  0.164974000  0.000000000     0.095182417 -0.001494245  0.000000000
     0.164974000 10.508732000  0.000000000    -0.001494245  0.095182417  0.000000000
     0.000000000  0.000000000 10.419823000     0.000000000  0.000000000  0.095970920

  length of vectors

 
 k-points in units of 2pi/SCALE and weight: Automatic mesh                          
   0.00000000  0.00000000  0.00000000       0.125
   0.04759121 -0.00074712  0.00000000       0.250
   0.04684409  0.04684409  0.00000000       0.125
   0.00000000  0.00000000  0.04798546       0.125
   0.04759121 -0.00074712  0.04798546       0.250
   0.04684409  0.04684409  0.04798546       0.125
 
 k-points in reciprocal lattice and weights: Automatic mesh                          
   0.00000000  0.00000000  0.00000000       0.125
   0.50000000  0.00000000  0.00000000       0.250
   0.50000000  0.50000000  0.00000000       0.125
   0.00000000  0.00000000  0.50000000       0.125
   0.50000000  0.00000000  0.50000000       0.250
   0.50000000  0.50000000  0.50000000       0.125
 
 position of ions in fractional coordinates (direct lattice) 
   0.12615300  0.12519500  0.12324700
   0.62615300  0.12519500  0.12324700
   0.12615300  0.62519500  0.12324700
   0.62615300  0.62519500  0.12324700
   0.37384700  0.37480500  0.12324700
   0.87384700  0.37480500  0.12324700
   0.37384700  0.87480500  0.12324700
   0.87384700  0.87480500  0.12324700
   0.12480500  0.37384700  0.87324700
   0.62480500  0.37384700  0.87324700
   0.12480500  0.87384700  0.87324700
   0.62480500  0.87384700  0.87324700
   0.37519500  0.12615300  0.87324700
   0.87519500  0.12615300  0.87324700
   0.37519500  0.62615300  0.87324700
   0.87519500  0.62615300  0.87324700
   0.12384700  0.12480500  0.62324700
   0.62384700  0.12480500  0.62324700
   0.12384700  0.62480500  0.62324700
   0.62384700  0.62480500  0.62324700
   0.37615300  0.37519500  0.62324700
   0.87615300  0.37519500  0.62324700
   0.37615300  0.87519500  0.62324700
   0.87615300  0.87519500  0.62324700
   0.37480500  0.12384700  0.37324700
   0.87480500  0.12384700  0.37324700
   0.37480500  0.62384700  0.37324700
   0.87480500  0.62384700  0.37324700
   0.12519500  0.37615300  0.37324700
   0.62519500  0.37615300  0.37324700
   0.12519500  0.87615300  0.37324700
   0.62519500  0.87615300  0.37324700
   0.00000000  0.00000000  0.50149500
   0.50000000  0.00000000  0.50149500
   0.00000000  0.50000000  0.50149500
   0.50000000  0.50000000  0.50149500
   0.25000000  0.00000000  0.25149500
   0.75000000  0.00000000  0.25149500
   0.25000000  0.50000000  0.25149500
   0.75000000  0.50000000  0.25149500
   0.25000000  0.25000000  0.00149500
   0.75000000  0.25000000  0.00149500
   0.25000000  0.75000000  0.00149500
   0.75000000  0.75000000  0.00149500
   0.00000000  0.25000000  0.75149500
   0.50000000  0.25000000  0.75149500
   0.00000000  0.75000000  0.75149500
   0.50000000  0.75000000  0.75149500
   0.00000000  0.00000000  0.00201100
   0.50000000  0.00000000  0.00201100
   0.00000000  0.50000000  0.00201100
   0.50000000  0.50000000  0.00201100
   0.25000000  0.00000000  0.75201100
   0.75000000  0.00000000  0.75201100
   0.25000000  0.50000000  0.75201100
   0.75000000  0.50000000  0.75201100
   0.25000000  0.25000000  0.50201100
   0.75000000  0.25000000  0.50201100
   0.25000000  0.75000000  0.50201100
   0.75000000  0.75000000  0.50201100
   0.00000000  0.25000000  0.25201100
   0.50000000  0.25000000  0.25201100
   0.00000000  0.75000000  0.25201100
   0.50000000  0.75000000  0.25201100
 
 position of ions in cartesian coordinates  (Angst):
   1.34636199  1.33645267  1.28421193
   6.60072799  1.41893967  1.28421193
   1.42884899  6.59081867  1.28421193
   6.68321499  6.67330567  1.28421193
   3.99049101  4.00040033  1.28421193
   9.24485701  4.08288733  1.28421193
   4.07297801  9.25476633  1.28421193
   9.32734401  9.33725333  1.28421193
   1.37321733  3.94924751  9.09907918
   6.62758333  4.03173451  9.09907918
   1.45570433  9.20361351  9.09907918
   6.71007033  9.28610051  9.09907918
   3.96363567  1.38760549  9.09907918
   9.21800167  1.47009249  9.09907918
   4.04612267  6.64197149  9.09907918
   9.30048867  6.72445849  9.09907918
   1.32206451  1.33197383  6.49412343
   6.57643051  1.41446083  6.49412343
   1.40455151  6.58633983  6.49412343
   6.65891751  6.66882683  6.49412343
   4.01478849  4.00487917  6.49412343
   9.26915449  4.08736617  6.49412343
   4.09727549  9.25924517  6.49412343
   9.35164149  9.34173217  6.49412343
   3.95915683  1.36330801  3.88916768
   9.21352283  1.44579501  3.88916768
   4.04164383  6.61767401  3.88916768
   9.29600983  6.70016101  3.88916768
   1.37769617  3.97354499  3.88916768
   6.63206217  4.05603199  3.88916768
   1.46018317  9.22791099  3.88916768
   6.71454917  9.31039799  3.88916768
   0.00000000  0.00000000  5.22548914
   5.25436600  0.08248700  5.22548914
   0.08248700  5.25436600  5.22548914
   5.33685300  5.33685300  5.22548914
   2.62718300  0.04124350  2.62053339
   7.88154900  0.12373050  2.62053339
   2.70967000  5.29560950  2.62053339
   7.96403600  5.37809650  2.62053339
   2.66842650  2.66842650  0.01557764
   7.92279250  2.75091350  0.01557764
   2.75091350  7.92279250  0.01557764
   8.00527950  8.00527950  0.01557764
   0.04124350  2.62718300  7.83044489
   5.29560950  2.70967000  7.83044489
   0.12373050  7.88154900  7.83044489
   5.37809650  7.96403600  7.83044489
   0.00000000  0.00000000  0.02095426
   5.25436600  0.08248700  0.02095426
   0.08248700  5.25436600  0.02095426
   5.33685300  5.33685300  0.02095426
   2.62718300  0.04124350  7.83582151
   7.88154900  0.12373050  7.83582151
   2.70967000  5.29560950  7.83582151
   7.96403600  5.37809650  7.83582151
   2.66842650  2.66842650  5.23086576
   7.92279250  2.75091350  5.23086576
   2.75091350  7.92279250  5.23086576
   8.00527950  8.00527950  5.23086576
   0.04124350  2.62718300  2.62591001
   5.29560950  2.70967000  2.62591001
   0.12373050  7.88154900  2.62591001
   5.37809650  7.96403600  2.62591001
 


--------------------------------------------------------------------------------------------------------


 k-point  1 :   0.0000 0.0000 0.0000  plane waves:   48367
 k-point  2 :   0.5000 0.0000 0.0000  plane waves:   48372
 k-point  3 :   0.5000 0.5000 0.0000  plane waves:   48444
 k-point  4 :   0.0000 0.0000 0.5000  plane waves:   48436
 k-point  5 :   0.5000 0.0000 0.5000  plane waves:   48356
 k-point  6 :   0.5000 0.5000 0.5000  plane waves:   48300

 maximum and minimum number of plane-waves per node :     48444    48300

 maximum number of plane-waves:     48444
 maximum index in each direction: 
   IXMAX=   22   IYMAX=   22   IZMAX=   22
   IXMIN=  -23   IYMIN=  -23   IZMIN=  -22


 serial   3D FFT for wavefunctions
 parallel 3D FFT for charge:
    minimum data exchange during FFTs selected (reduces bandwidth)


 total amount of memory used by VASP MPI-rank0   301249. kBytes
=======================================================================

   base      :      30000. kBytes
   nonl-proj :     175882. kBytes
   fftplans  :       4588. kBytes
   grid      :      69719. kBytes
   one-center:       1990. kBytes
   wavefun   :      19070. kBytes
 
     INWAV:  cpu time   11.4599: real time   11.6570
 Broyden mixing: mesh for mixing (old mesh)
   NGX = 45   NGY = 45   NGZ = 45
  (NGX  =192   NGY  =192   NGZ  =180)
  gives a total of  91125 points

 initial charge density was supplied:
 number of electron     688.0000441 magnetization      -0.0000000
 keeping initial charge density in first step


--------------------------------------------------------------------------------------------------------


 Maximum index for augmentation-charges          897 (set IRDMAX)


--------------------------------------------------------------------------------------------------------


 First call to EWALD:  gamma=   0.169
 Maximum number of real-space cells 3x 3x 3
 Maximum number of reciprocal cells 3x 3x 3

    FEWALD:  cpu time    0.0027: real time    0.0031


--------------------------------------- Iteration      1(   1)  ---------------------------------------


    POTLOK:  cpu time    0.3633: real time    0.4211
    SETDIJ:  cpu time    0.0144: real time    0.0146
     EDDAV:  cpu time  141.6340: real time  142.7042
 BZINTS: Fermi energy:  5.009177;688.000000 electrons
         Band energy:***********;  BLOECHL correction:  0.000000
       DOS:  cpu time    0.0034: real time    0.0034
    CHARGE:  cpu time    1.1986: real time    1.2065
    MIXING:  cpu time    0.0026: real time    0.0026
    --------------------------------------------
      LOOP:  cpu time  143.2162: real time  144.3524

 eigenvalue-minimisations  : 18944
 total energy-change (2. order) :-0.3053323E+03  (-0.1325283E+03)
 number of electron     688.0000442 magnetization       0.0000000
 augmentation part      282.9086766 magnetization       0.0000000

 Broyden mixing:
  rms(total) = 0.30982E+01    rms(broyden)= 0.30982E+01
  rms(prec ) = 0.30990E+01
  weight for this iteration     100.00

 Free energy of the ion-electron system (eV)
  ---------------------------------------------------
  alpha Z        PSCENC =      2356.67505234
  Ewald energy   TEWEN  =    -62476.53364615
  -Hartree energ DENC   =    -42947.74056854
  -exchange      EXHF   =         0.00000000
  -V(xc)+E(xc)   XCENC  =      3286.51864746
  PAW double counting   =    112276.57663356  -115970.50512331
  entropy T*S    EENTRO =         0.00000000
  eigenvalues    EBANDS =    -10850.38843189
  atomic energy  EATOM  =    114020.06510763
  Solvation  Ediel_sol  =         0.00000000
  ---------------------------------------------------
  free energy    TOTEN  =      -305.33232890 eV

  energy without entropy =     -305.33232890  energy(sigma->0) =     -305.33232890


--------------------------------------------------------------------------------------------------------




--------------------------------------- Iteration      1(   2)  ---------------------------------------


    POTLOK:  cpu time    0.1389: real time    0.1427
    SETDIJ:  cpu time    0.0131: real time    0.0131
     EDDAV:  cpu time   72.9080: real time   73.4739
 BZINTS: Fermi energy:  4.890197;688.000000 electrons
         Band energy:***********;  BLOECHL correction:  0.000000
       DOS:  cpu time    0.0031: real time    0.0031
    CHARGE:  cpu time    1.1954: real time    1.2034
    MIXING:  cpu time    0.0023: real time    0.0213
    --------------------------------------------
      LOOP:  cpu time   74.2608: real time   74.8575

 eigenvalue-minimisations  : 13056
 total energy-change (2. order) :-0.2240335E+02  (-0.2243475E+02)
 number of electron     688.0000441 magnetization       0.0000000
 augmentation part      281.7165285 magnetization       0.0000000

 Broyden mixing:
  rms(total) = 0.12606E+01    rms(broyden)= 0.12606E+01
  rms(prec ) = 0.12664E+01
  weight for this iteration     100.00

 eigenvalues of (default mixing * dielectric matrix)
  average eigenvalue GAMMA=   0.7022
  0.7022

 Free energy of the ion-electron system (eV)
  ---------------------------------------------------
  alpha Z        PSCENC =      2356.67505234
  Ewald energy   TEWEN  =    -62476.53364615
  -Hartree energ DENC   =    -42962.57859039
  -exchange      EXHF   =         0.00000000
  -V(xc)+E(xc)   XCENC  =      3287.15264012
  PAW double counting   =    114927.12550191  -118633.62140641
  entropy T*S    EENTRO =         0.00000000
  eigenvalues    EBANDS =    -10846.02033667
  atomic energy  EATOM  =    114020.06510763
  Solvation  Ediel_sol  =         0.00000000
  ---------------------------------------------------
  free energy    TOTEN  =      -327.73567762 eV

  energy without entropy =     -327.73567762  energy(sigma->0) =     -327.73567762


--------------------------------------------------------------------------------------------------------




--------------------------------------- Iteration      1(   3)  ---------------------------------------


    POTLOK:  cpu time    0.1407: real time    0.1416
    SETDIJ:  cpu time    0.0132: real time    0.0133
     EDDAV:  cpu time  144.2093: real time  145.2065
 BZINTS: Fermi energy:  4.856432;688.000000 electrons
         Band energy:***********;  BLOECHL correction:  0.000000
       DOS:  cpu time    0.0028: real time    0.0028
    CHARGE:  cpu time    1.1955: real time    1.2042
    MIXING:  cpu time    0.0017: real time    0.0048
    --------------------------------------------
      LOOP:  cpu time  145.5632: real time  146.5733

 eigenvalue-minimisations  : 19712
 total energy-change (2. order) :-0.2827265E+00  (-0.3459351E+00)
 number of electron     688.0000441 magnetization       0.0000000
 augmentation part      282.2747058 magnetization       0.0000000

 Broyden mixing:
  rms(total) = 0.92265E+00    rms(broyden)= 0.92265E+00
  rms(prec ) = 0.92617E+00
  weight for this iteration     100.00

 eigenvalues of (default mixing * dielectric matrix)
  average eigenvalue GAMMA=   0.5214
  0.5214  0.5214

 Free energy of the ion-electron system (eV)
  ---------------------------------------------------
  alpha Z        PSCENC =      2356.67505234
  Ewald energy   TEWEN  =    -62476.53364615
  -Hartree energ DENC   =    -42935.40841317
  -exchange      EXHF   =         0.00000000
  -V(xc)+E(xc)   XCENC  =      3286.49512620
  PAW double counting   =    114198.78625107  -117898.35150119
  entropy T*S    EENTRO =         0.00000000
  eigenvalues    EBANDS =    -10879.74638083
  atomic energy  EATOM  =    114020.06510763
  Solvation  Ediel_sol  =         0.00000000
  ---------------------------------------------------
  free energy    TOTEN  =      -328.01840408 eV

  energy without entropy =     -328.01840408  energy(sigma->0) =     -328.01840408


--------------------------------------------------------------------------------------------------------




--------------------------------------- Iteration      1(   4)  ---------------------------------------


    POTLOK:  cpu time    0.1423: real time    0.1441
    SETDIJ:  cpu time    0.0131: real time    0.0132
     EDDAV:  cpu time   94.4542: real time   95.1525
 BZINTS: Fermi energy:  4.849771;688.000000 electrons
         Band energy:***********;  BLOECHL correction:  0.000000
       DOS:  cpu time    0.0028: real time    0.0028
    CHARGE:  cpu time    1.1947: real time    1.2030
    MIXING:  cpu time    0.0016: real time    0.0140
    --------------------------------------------
      LOOP:  cpu time   95.8087: real time   96.5295

 eigenvalue-minimisations  : 14848
 total energy-change (2. order) :-0.1933928E-02  (-0.1473884E-01)
 number of electron     688.0000441 magnetization       0.0000000
 augmentation part      282.1789105 magnetization       0.0000000

 Broyden mixing:
  rms(total) = 0.79728E+00    rms(broyden)= 0.79728E+00
  rms(prec ) = 0.79767E+00
  weight for this iteration     100.00

 eigenvalues of (default mixing * dielectric matrix)
  average eigenvalue GAMMA=   0.5408
  0.6301  0.6301  0.3623

 Free energy of the ion-electron system (eV)
  ---------------------------------------------------
  alpha Z        PSCENC =      2356.67505234
  Ewald energy   TEWEN  =    -62476.53364615
  -Hartree energ DENC   =    -42939.01164093
  -exchange      EXHF   =         0.00000000
  -V(xc)+E(xc)   XCENC  =      3286.40677166
  PAW double counting   =    113961.68698057  -117661.53264757
  entropy T*S    EENTRO =         0.00000000
  eigenvalues    EBANDS =    -10875.77631555
  atomic energy  EATOM  =    114020.06510763
  Solvation  Ediel_sol  =         0.00000000
  ---------------------------------------------------
  free energy    TOTEN  =      -328.02033801 eV

  energy without entropy =     -328.02033801  energy(sigma->0) =     -328.02033801


--------------------------------------------------------------------------------------------------------




--------------------------------------- Iteration      1(   5)  ---------------------------------------


    POTLOK:  cpu time    0.1397: real time    0.1406
    SETDIJ:  cpu time    0.0131: real time    0.0131
     EDDAV:  cpu time  102.3712: real time  103.1161
 BZINTS: Fermi energy:  4.852514;688.000000 electrons
         Band energy:***********;  BLOECHL correction:  0.000000
       DOS:  cpu time    0.0028: real time    0.0028
    CHARGE:  cpu time    1.2117: real time    1.2203
    MIXING:  cpu time    0.0015: real time    0.0015
    --------------------------------------------
      LOOP:  cpu time  103.7399: real time  104.4945

 eigenvalue-minimisations  : 15616
 total energy-change (2. order) :-0.2629045E-04  (-0.1247316E-02)
 number of electron     688.0000441 magnetization       0.0000000
 augmentation part      282.1494632 magnetization       0.0000000

 Broyden mixing:
  rms(total) = 0.69447E+00    rms(broyden)= 0.69447E+00
  rms(prec ) = 0.69463E+00
  weight for this iteration     100.00

 eigenvalues of (default mixing * dielectric matrix)
  average eigenvalue GAMMA=   0.4425
  0.6430  0.6430  0.3574  0.1264

 Free energy of the ion-electron system (eV)
  ---------------------------------------------------
  alpha Z        PSCENC =      2356.67505234
  Ewald energy   TEWEN  =    -62476.53364615
  -Hartree energ DENC   =    -42943.51040770
  -exchange      EXHF   =         0.00000000
  -V(xc)+E(xc)   XCENC  =      3286.51945438
  PAW double counting   =    113729.79113665  -117429.13963775
  entropy T*S    EENTRO =         0.00000000
  eigenvalues    EBANDS =    -10871.88742369
  atomic energy  EATOM  =    114020.06510763
  Solvation  Ediel_sol  =         0.00000000
  ---------------------------------------------------
  free energy    TOTEN  =      -328.02036430 eV

  energy without entropy =     -328.02036430  energy(sigma->0) =     -328.02036430


--------------------------------------------------------------------------------------------------------




--------------------------------------- Iteration      1(   6)  ---------------------------------------


    POTLOK:  cpu time    0.1415: real time    0.1427
    SETDIJ:  cpu time    0.0130: real time    0.0131
     EDDAV:  cpu time  106.1691: real time  106.9239
 BZINTS: Fermi energy:  4.852101;688.000000 electrons
         Band energy:***********;  BLOECHL correction:  0.000000
       DOS:  cpu time    0.0028: real time    0.0028
    CHARGE:  cpu time    1.4438: real time    1.4532
    MIXING:  cpu time    0.0018: real time    0.0018
    --------------------------------------------
      LOOP:  cpu time  107.7721: real time  108.5374

 eigenvalue-minimisations  : 15616
 total energy-change (2. order) : 0.2351133E-03  (-0.6088187E-04)
 number of electron     688.0000441 magnetization       0.0000000
 augmentation part      282.1479221 magnetization       0.0000000

 Broyden mixing:
  rms(total) = 0.63923E+00    rms(broyden)= 0.63923E+00
  rms(prec ) = 0.63939E+00
  weight for this iteration     100.00

 eigenvalues of (default mixing * dielectric matrix)
  average eigenvalue GAMMA=   0.5774
  0.7720  0.7720  0.5014  0.5014  0.3400

 Free energy of the ion-electron system (eV)
  ---------------------------------------------------
  alpha Z        PSCENC =      2356.67505234
  Ewald energy   TEWEN  =    -62476.53364615
  -Hartree energ DENC   =    -42943.98789956
  -exchange      EXHF   =         0.00000000
  -V(xc)+E(xc)   XCENC  =      3286.51387795
  PAW double counting   =    113607.53746105  -117306.40132526
  entropy T*S    EENTRO =         0.00000000
  eigenvalues    EBANDS =    -10871.88875719
  atomic energy  EATOM  =    114020.06510763
  Solvation  Ediel_sol  =         0.00000000
  ---------------------------------------------------
  free energy    TOTEN  =      -328.02012919 eV

  energy without entropy =     -328.02012919  energy(sigma->0) =     -328.02012919


--------------------------------------------------------------------------------------------------------




--------------------------------------- Iteration      1(   7)  ---------------------------------------


    POTLOK:  cpu time    0.1529: real time    0.1547
    SETDIJ:  cpu time    0.0166: real time    0.0167
     EDDAV:  cpu time  125.0638: real time  125.9396
 BZINTS: Fermi energy:  4.847118;688.000000 electrons
         Band energy:***********;  BLOECHL correction:  0.000000
       DOS:  cpu time    0.0028: real time    0.0028
    CHARGE:  cpu time    1.1950: real time    1.2027
    MIXING:  cpu time    0.0016: real time    0.0016
    --------------------------------------------
      LOOP:  cpu time  126.4327: real time  127.3182

 eigenvalue-minimisations  : 17408
 total energy-change (2. order) : 0.7131439E-03  (-0.4887696E-04)
 number of electron     688.0000441 magnetization       0.0000000
 augmentation part      282.1733986 magnetization       0.0000000

 Broyden mixing:
  rms(total) = 0.49874E+00    rms(broyden)= 0.49874E+00
  rms(prec ) = 0.49883E+00
  weight for this iteration     100.00

 eigenvalues of (default mixing * dielectric matrix)
  average eigenvalue GAMMA=   0.7222
  1.1901  1.1901  0.5766  0.5766  0.4615  0.3382

 Free energy of the ion-electron system (eV)
  ---------------------------------------------------
  alpha Z        PSCENC =      2356.67505234
  Ewald energy   TEWEN  =    -62476.53364615
  -Hartree energ DENC   =    -42944.56608683
  -exchange      EXHF   =         0.00000000
  -V(xc)+E(xc)   XCENC  =      3286.50255893
  PAW double counting   =    113295.63400591  -116993.21224448
  entropy T*S    EENTRO =         0.00000000
  eigenvalues    EBANDS =    -10872.58416339
  atomic energy  EATOM  =    114020.06510763
  Solvation  Ediel_sol  =         0.00000000
  ---------------------------------------------------
  free energy    TOTEN  =      -328.01941604 eV

  energy without entropy =     -328.01941604  energy(sigma->0) =     -328.01941604


--------------------------------------------------------------------------------------------------------




--------------------------------------- Iteration      1(   8)  ---------------------------------------


    POTLOK:  cpu time    0.1409: real time    0.1419
    SETDIJ:  cpu time    0.0131: real time    0.0132
     EDDAV:  cpu time   72.2960: real time   72.8569
 BZINTS: Fermi energy:  4.847004;688.000000 electrons
         Band energy:***********;  BLOECHL correction:  0.000000
       DOS:  cpu time    0.0028: real time    0.0028
    CHARGE:  cpu time    1.1962: real time    1.2043
    MIXING:  cpu time    0.0016: real time    0.0017
    --------------------------------------------
      LOOP:  cpu time   73.6506: real time   74.2207

 eigenvalue-minimisations  : 12800
 total energy-change (2. order) : 0.4656144E-03  (-0.4597423E-04)
 number of electron     688.0000441 magnetization       0.0000000
 augmentation part      282.1869184 magnetization       0.0000000

 Broyden mixing:
  rms(total) = 0.30310E+00    rms(broyden)= 0.30310E+00
  rms(prec ) = 0.30319E+00
  weight for this iteration     100.00

 eigenvalues of (default mixing * dielectric matrix)
  average eigenvalue GAMMA=   0.7377
  1.3238  1.3238  0.6371  0.6371  0.4555  0.4555  0.3312

 Free energy of the ion-electron system (eV)
  ---------------------------------------------------
  alpha Z        PSCENC =      2356.67505234
  Ewald energy   TEWEN  =    -62476.53364615
  -Hartree energ DENC   =    -42946.26596314
  -exchange      EXHF   =         0.00000000
  -V(xc)+E(xc)   XCENC  =      3286.51099554
  PAW double counting   =    112873.83013597  -116569.81182873
  entropy T*S    EENTRO =         0.00000000
  eigenvalues    EBANDS =    -10872.48880388
  atomic energy  EATOM  =    114020.06510763
  Solvation  Ediel_sol  =         0.00000000
  ---------------------------------------------------
  free energy    TOTEN  =      -328.01895043 eV

  energy without entropy =     -328.01895043  energy(sigma->0) =     -328.01895043


--------------------------------------------------------------------------------------------------------




--------------------------------------- Iteration      1(   9)  ---------------------------------------


    POTLOK:  cpu time    0.1416: real time    0.1425
    SETDIJ:  cpu time    0.0130: real time    0.0130
     EDDAV:  cpu time  128.5302: real time  129.4194
 BZINTS: Fermi energy:  5.051942;688.000000 electrons
         Band energy:***********;  BLOECHL correction:  0.000000
       DOS:  cpu time    0.0032: real time    0.0032
    CHARGE:  cpu time    1.1931: real time    1.2015
    MIXING:  cpu time    0.0018: real time    0.0018
    --------------------------------------------
      LOOP:  cpu time  129.8828: real time  130.7814

 eigenvalue-minimisations  : 17408
 total energy-change (2. order) : 0.1188953E-03  (-0.8094541E-05)
 number of electron     688.0000441 magnetization      -0.0000000
 augmentation part      282.1948025 magnetization      -0.0000000

 Broyden mixing:
  rms(total) = 0.24064E+00    rms(broyden)= 0.24064E+00
  rms(prec ) = 0.24071E+00
  weight for this iteration     100.00

 eigenvalues of (default mixing * dielectric matrix)
  average eigenvalue GAMMA=   0.6996
  1.3741  1.3741  0.6517  0.6517  0.4373  0.4373  0.3354  0.3354

 Free energy of the ion-electron system (eV)
  ---------------------------------------------------
  alpha Z        PSCENC =      2356.67505234
  Ewald energy   TEWEN  =    -62476.53364615
  -Hartree energ DENC   =    -42946.58996201
  -exchange      EXHF   =         0.00000000
  -V(xc)+E(xc)   XCENC  =      3286.51373157
  PAW double counting   =    112748.91073349  -116444.43062607
  entropy T*S    EENTRO =         0.00000000
  eigenvalues    EBANDS =    -10872.62922234
  atomic energy  EATOM  =    114020.06510763
  Solvation  Ediel_sol  =         0.00000000
  ---------------------------------------------------
  free energy    TOTEN  =      -328.01883153 eV

  energy without entropy =     -328.01883153  energy(sigma->0) =     -328.01883153


--------------------------------------------------------------------------------------------------------




--------------------------------------- Iteration      1(  10)  ---------------------------------------


    POTLOK:  cpu time    0.1414: real time    0.1422
    SETDIJ:  cpu time    0.0130: real time    0.0130
     EDDAV:  cpu time   80.5400: real time   81.1495
 BZINTS: Fermi energy:  5.051922;688.000000 electrons
         Band energy:***********;  BLOECHL correction:  0.000000
       DOS:  cpu time    0.0032: real time    0.0032
    CHARGE:  cpu time    1.1950: real time    1.2029
    MIXING:  cpu time    0.0019: real time    0.0019
    --------------------------------------------
      LOOP:  cpu time   81.8945: real time   82.5126

 eigenvalue-minimisations  : 13568
 total energy-change (2. order) : 0.1465050E-03  (-0.1645876E-04)
 number of electron     688.0000441 magnetization       0.0000000
 augmentation part      282.2086188 magnetization       0.0000000

 Broyden mixing:
  rms(total) = 0.11952E+00    rms(broyden)= 0.11952E+00
  rms(prec ) = 0.11955E+00
  weight for this iteration     100.00

 eigenvalues of (default mixing * dielectric matrix)
  average eigenvalue GAMMA=   0.8549
  1.7185  1.7185  0.8904  0.8904  0.5845  0.5845  0.4869  0.4869  0.3335

 Free energy of the ion-electron system (eV)
  ---------------------------------------------------
  alpha Z        PSCENC =      2356.67505234
  Ewald energy   TEWEN  =    -62476.53364615
  -Hartree energ DENC   =    -42947.20749810
  -exchange      EXHF   =         0.00000000
  -V(xc)+E(xc)   XCENC  =      3286.51650402
  PAW double counting   =    112507.88998919  -116202.53970563
  entropy T*S    EENTRO =         0.00000000
  eigenvalues    EBANDS =    -10872.88448832
  atomic energy  EATOM  =    114020.06510763
  Solvation  Ediel_sol  =         0.00000000
  ---------------------------------------------------
  free energy    TOTEN  =      -328.01868503 eV

  energy without entropy =     -328.01868503  energy(sigma->0) =     -328.01868503


--------------------------------------------------------------------------------------------------------




--------------------------------------- Iteration      1(  11)  ---------------------------------------


    POTLOK:  cpu time    0.1429: real time    0.1439
    SETDIJ:  cpu time    0.0129: real time    0.0130
     EDDAV:  cpu time  129.6546: real time  130.5601
 BZINTS: Fermi energy:  5.051911;688.000000 electrons
         Band energy:***********;  BLOECHL correction:  0.000000
       DOS:  cpu time    0.0032: real time    0.0032
    CHARGE:  cpu time    1.1958: real time    1.2028
    MIXING:  cpu time    0.0018: real time    0.0018
    --------------------------------------------
      LOOP:  cpu time  131.0112: real time  131.9247

 eigenvalue-minimisations  : 17920
 total energy-change (2. order) : 0.3658459E-04  (-0.4633960E-05)
 number of electron     688.0000441 magnetization      -0.0000000
 augmentation part      282.2158296 magnetization      -0.0000000

 Broyden mixing:
  rms(total) = 0.57396E-01    rms(broyden)= 0.57396E-01
  rms(prec ) = 0.57415E-01
  weight for this iteration     100.00

 eigenvalues of (default mixing * dielectric matrix)
  average eigenvalue GAMMA=   0.8926
  1.9520  1.9520  0.9709  0.9709  0.6351  0.6351  0.5027  0.5027  0.3342  0.4710

 Free energy of the ion-electron system (eV)
  ---------------------------------------------------
  alpha Z        PSCENC =      2356.67505234
  Ewald energy   TEWEN  =    -62476.53364615
  -Hartree energ DENC   =    -42947.47685707
  -exchange      EXHF   =         0.00000000
  -V(xc)+E(xc)   XCENC  =      3286.51787886
  PAW double counting   =    112388.03968806  -116082.30111163
  entropy T*S    EENTRO =         0.00000000
  eigenvalues    EBANDS =    -10873.00476048
  atomic energy  EATOM  =    114020.06510763
  Solvation  Ediel_sol  =         0.00000000
  ---------------------------------------------------
  free energy    TOTEN  =      -328.01864845 eV

  energy without entropy =     -328.01864845  energy(sigma->0) =     -328.01864845


--------------------------------------------------------------------------------------------------------




--------------------------------------- Iteration      1(  12)  ---------------------------------------


    POTLOK:  cpu time    0.1383: real time    0.1426
    SETDIJ:  cpu time    0.0130: real time    0.0130
     EDDAV:  cpu time   94.3121: real time   95.0005
 BZINTS: Fermi energy:  5.051947;688.000000 electrons
         Band energy:***********;  BLOECHL correction:  0.000000
       DOS:  cpu time    0.0032: real time    0.0032
    CHARGE:  cpu time    1.1948: real time    1.2021
    MIXING:  cpu time    0.0020: real time    0.0020
    --------------------------------------------
      LOOP:  cpu time   95.6634: real time   96.3634

 eigenvalue-minimisations  : 14592
 total energy-change (2. order) : 0.1047090E-04  (-0.8080391E-06)
 number of electron     688.0000441 magnetization      -0.0000000
 augmentation part      282.2178936 magnetization      -0.0000000

 Broyden mixing:
  rms(total) = 0.27940E-01    rms(broyden)= 0.27940E-01
  rms(prec ) = 0.27950E-01
  weight for this iteration     100.00

 eigenvalues of (default mixing * dielectric matrix)
  average eigenvalue GAMMA=   0.9632
  2.2663  2.2663  1.0974  1.0974  0.7289  0.7289  0.5459  0.5459  0.3339  0.4923
  0.4923

 Free energy of the ion-electron system (eV)
  ---------------------------------------------------
  alpha Z        PSCENC =      2356.67505234
  Ewald energy   TEWEN  =    -62476.53364615
  -Hartree energ DENC   =    -42947.62500633
  -exchange      EXHF   =         0.00000000
  -V(xc)+E(xc)   XCENC  =      3286.52038721
  PAW double counting   =    112333.49169055  -116027.60338100
  entropy T*S    EENTRO =         0.00000000
  eigenvalues    EBANDS =    -10873.00884222
  atomic energy  EATOM  =    114020.06510763
  Solvation  Ediel_sol  =         0.00000000
  ---------------------------------------------------
  free energy    TOTEN  =      -328.01863797 eV

  energy without entropy =     -328.01863797  energy(sigma->0) =     -328.01863797


--------------------------------------------------------------------------------------------------------




--------------------------------------- Iteration      1(  13)  ---------------------------------------


    POTLOK:  cpu time    0.1424: real time    0.1434
    SETDIJ:  cpu time    0.0130: real time    0.0131
     EDDAV:  cpu time  117.3515: real time  118.1815
 BZINTS: Fermi energy:  5.029414;688.000000 electrons
         Band energy:***********;  BLOECHL correction:  0.000000
       DOS:  cpu time    0.0033: real time    0.0033
    CHARGE:  cpu time    1.1903: real time    1.1986
    MIXING:  cpu time    0.0019: real time    0.0019
    --------------------------------------------
      LOOP:  cpu time  118.7024: real time  119.5417

 eigenvalue-minimisations  : 16384
 total energy-change (2. order) : 0.5669775E-05  (-0.4816058E-06)
 number of electron     688.0000441 magnetization       0.0000000
 augmentation part      282.2200968 magnetization       0.0000000

 Broyden mixing:
  rms(total) = 0.65693E-02    rms(broyden)= 0.65693E-02
  rms(prec ) = 0.65736E-02
  weight for this iteration     100.00

 eigenvalues of (default mixing * dielectric matrix)
  average eigenvalue GAMMA=   1.1742
  3.1215  3.1215  1.4077  1.4077  0.8972  0.8972  0.3339  0.6289  0.6289  0.5517
  0.5517  0.5419

 Free energy of the ion-electron system (eV)
  ---------------------------------------------------
  alpha Z        PSCENC =      2356.67505234
  Ewald energy   TEWEN  =    -62476.53364615
  -Hartree energ DENC   =    -42947.74472909
  -exchange      EXHF   =         0.00000000
  -V(xc)+E(xc)   XCENC  =      3286.52128148
  PAW double counting   =    112290.37794250  -115984.34797876
  entropy T*S    EENTRO =         0.00000000
  eigenvalues    EBANDS =    -10873.03166225
  atomic energy  EATOM  =    114020.06510763
  Solvation  Ediel_sol  =         0.00000000
  ---------------------------------------------------
  free energy    TOTEN  =      -328.01863230 eV

  energy without entropy =     -328.01863230  energy(sigma->0) =     -328.01863230


--------------------------------------------------------------------------------------------------------




--------------------------------------- Iteration      1(  14)  ---------------------------------------


    POTLOK:  cpu time    0.1413: real time    0.1422
    SETDIJ:  cpu time    0.0131: real time    0.0132
     EDDAV:  cpu time  120.2088: real time  121.0569
 BZINTS: Fermi energy:  4.959948;688.000000 electrons
         Band energy:***********;  BLOECHL correction:  0.000000
       DOS:  cpu time    0.0032: real time    0.0032
    CHARGE:  cpu time    1.1970: real time    1.2048
    MIXING:  cpu time    0.0021: real time    0.0021
    --------------------------------------------
      LOOP:  cpu time  121.5655: real time  122.4225

 eigenvalue-minimisations  : 17152
 total energy-change (2. order) : 0.1050808E-05  (-0.9643417E-07)
 number of electron     688.0000441 magnetization      -0.0000000
 augmentation part      282.2211269 magnetization      -0.0000000

 Broyden mixing:
  rms(total) = 0.56076E-03    rms(broyden)= 0.56075E-03
  rms(prec ) = 0.56140E-03
  weight for this iteration     100.00

 eigenvalues of (default mixing * dielectric matrix)
  average eigenvalue GAMMA=   1.2014
  3.2451  3.2451  1.5535  1.5535  0.9924  0.9924  0.3339  0.7097  0.7097  0.5698
  0.5698  0.5719  0.5719

 Free energy of the ion-electron system (eV)
  ---------------------------------------------------
  alpha Z        PSCENC =      2356.67505234
  Ewald energy   TEWEN  =    -62476.53364615
  -Hartree energ DENC   =    -42947.76945344
  -exchange      EXHF   =         0.00000000
  -V(xc)+E(xc)   XCENC  =      3286.52098920
  PAW double counting   =    112277.39662709  -115971.32229679
  entropy T*S    EENTRO =         0.00000000
  eigenvalues    EBANDS =    -10873.05101113
  atomic energy  EATOM  =    114020.06510763
  Solvation  Ediel_sol  =         0.00000000
  ---------------------------------------------------
  free energy    TOTEN  =      -328.01863125 eV

  energy without entropy =     -328.01863125  energy(sigma->0) =     -328.01863125


--------------------------------------------------------------------------------------------------------




--------------------------------------- Iteration      1(  15)  ---------------------------------------


    POTLOK:  cpu time    0.1416: real time    0.1425
    SETDIJ:  cpu time    0.0130: real time    0.0131
     EDDAV:  cpu time  106.7525: real time  107.5129
 BZINTS: Fermi energy:  4.952161;688.000000 electrons
         Band energy:***********;  BLOECHL correction:  0.000000
       DOS:  cpu time    0.0032: real time    0.0032
    CHARGE:  cpu time    1.2096: real time    1.2179
    MIXING:  cpu time    0.0022: real time    0.0022
    --------------------------------------------
      LOOP:  cpu time  108.1221: real time  108.8918

 eigenvalue-minimisations  : 15360
 total energy-change (2. order) : 0.1234439E-06  (-0.6351179E-08)
 number of electron     688.0000441 magnetization      -0.0000000
 augmentation part      282.2212701 magnetization      -0.0000000

 Broyden mixing:
  rms(total) = 0.29785E-03    rms(broyden)= 0.29785E-03
  rms(prec ) = 0.30019E-03
  weight for this iteration     100.00

 eigenvalues of (default mixing * dielectric matrix)
  average eigenvalue GAMMA=   1.1835
  3.2020  3.2020  1.6242  1.6242  1.0412  1.0412  0.7632  0.7632  0.3339  0.5821
  0.5821  0.6173  0.6173  0.5748

 Free energy of the ion-electron system (eV)
  ---------------------------------------------------
  alpha Z        PSCENC =      2356.67505234
  Ewald energy   TEWEN  =    -62476.53364615
  -Hartree energ DENC   =    -42947.77184849
  -exchange      EXHF   =         0.00000000
  -V(xc)+E(xc)   XCENC  =      3286.52075411
  PAW double counting   =    112275.45415131  -115969.37539270
  entropy T*S    EENTRO =         0.00000000
  eigenvalues    EBANDS =    -10873.05280918
  atomic energy  EATOM  =    114020.06510763
  Solvation  Ediel_sol  =         0.00000000
  ---------------------------------------------------
  free energy    TOTEN  =      -328.01863113 eV

  energy without entropy =     -328.01863113  energy(sigma->0) =     -328.01863113


--------------------------------------------------------------------------------------------------------




--------------------------------------- Iteration      1(  16)  ---------------------------------------


    POTLOK:  cpu time    0.1413: real time    0.1422
    SETDIJ:  cpu time    0.0162: real time    0.0163
     EDDAV:  cpu time   71.4514: real time   71.9708
 BZINTS: Fermi energy:  4.951408;688.000000 electrons
         Band energy:***********;  BLOECHL correction:  0.000000
       DOS:  cpu time    0.0032: real time    0.0032
    --------------------------------------------
      LOOP:  cpu time   71.6121: real time   72.1324

 eigenvalue-minimisations  : 10240
 total energy-change (2. order) :-0.4118192E-08  (-0.7182558E-09)
 number of electron     688.0000441 magnetization      -0.0000000
 augmentation part      282.2212701 magnetization      -0.0000000

 Free energy of the ion-electron system (eV)
  ---------------------------------------------------
  alpha Z        PSCENC =      2356.67505234
  Ewald energy   TEWEN  =    -62476.53364615
  -Hartree energ DENC   =    -42947.77032709
  -exchange      EXHF   =         0.00000000
  -V(xc)+E(xc)   XCENC  =      3286.52070999
  PAW double counting   =    112276.07708051  -115970.00041028
  entropy T*S    EENTRO =         0.00000000
  eigenvalues    EBANDS =    -10873.05219809
  atomic energy  EATOM  =    114020.06510763
  Solvation  Ediel_sol  =         0.00000000
  ---------------------------------------------------
  free energy    TOTEN  =      -328.01863113 eV

  energy without entropy =     -328.01863113  energy(sigma->0) =     -328.01863113


--------------------------------------------------------------------------------------------------------




 average (electrostatic) potential at core
  the test charge radii are     0.9698  0.8297  0.9500
  (the norm of the test charge is              1.0000)
       1 -86.6186       2 -86.6186       3 -86.6186       4 -86.6186       5 -86.6186
       6 -86.6186       7 -86.6186       8 -86.6186       9 -86.6186      10 -86.6186
      11 -86.6186      12 -86.6186      13 -86.6186      14 -86.6186      15 -86.6186
      16 -86.6186      17 -86.6186      18 -86.6186      19 -86.6186      20 -86.6186
      21 -86.6186      22 -86.6186      23 -86.6186      24 -86.6186      25 -86.6186
      26 -86.6186      27 -86.6186      28 -86.6186      29 -86.6186      30 -86.6186
      31 -86.6186      32 -86.6186      33 -80.6990      34 -80.6990      35 -80.6990
      36 -80.6990      37 -80.6990      38 -80.6990      39 -80.6990      40 -80.6990
      41 -80.6990      42 -80.6990      43 -80.6990      44 -80.6990      45 -80.6990
      46 -80.6990      47 -80.6990      48 -80.6990      49 -80.2236      50 -80.2236
      51 -80.2236      52 -80.2236      53 -80.2236      54 -80.2236      55 -80.2236
      56 -80.2236      57 -80.2236      58 -80.2236      59 -80.2236      60 -80.2236
      61 -80.2236      62 -80.2236      63 -80.2236      64 -80.2236
 
 
 
 E-fermi :   4.9514     XC(G=0): -10.4681     alpha+bet :-10.5487


 spin component 1

 k-point     1 :       0.0000    0.0000    0.0000
  band No.  band energies     occupation 
      1     -64.3100      1.00000
      2     -64.3100      1.00000
      3     -64.3100      1.00000
      4     -64.3100      1.00000
      5     -64.3100      1.00000
      6     -64.3100      1.00000
      7     -64.3100      1.00000
      8     -64.3100      1.00000
      9     -64.2793      1.00000
     10     -64.2793      1.00000
     11     -64.2793      1.00000
     12     -64.2793      1.00000
     13     -64.2793      1.00000
     14     -64.2793      1.00000
     15     -64.2793      1.00000
     16     -64.2793      1.00000
     17     -64.2756      1.00000
     18     -64.2756      1.00000
     19     -64.2755      1.00000
     20     -64.2755      1.00000
     21     -64.2755      1.00000
     22     -64.2755      1.00000
     23     -64.2755      1.00000
     24     -64.2755      1.00000
     25     -64.2742      1.00000
     26     -64.2741      1.00000
     27     -64.2741      1.00000
     28     -64.2741      1.00000
     29     -64.2741      1.00000
     30     -64.2741      1.00000
     31     -64.2741      1.00000
     32     -64.2741      1.00000
     33     -64.2657      1.00000
     34     -64.2657      1.00000
     35     -64.2657      1.00000
     36     -64.2657      1.00000
     37     -64.2657      1.00000
     38     -64.2657      1.00000
     39     -64.2657      1.00000
     40     -64.2657      1.00000
     41     -64.2527      1.00000
     42     -64.2527      1.00000
     43     -64.2527      1.00000
     44     -64.2527      1.00000
     45     -64.2527      1.00000
     46     -64.2527      1.00000
     47     -64.2527      1.00000
     48     -64.2527      1.00000
     49     -51.8725      1.00000
     50     -51.8725      1.00000
     51     -51.8725      1.00000
[...]
   -.421E+02 0.332E+00 0.968E+01   0.430E+02 -.321E+00 -.977E+01   -.861E+00 -.114E-01 0.968E-01   -.365E-04 -.611E-06 -.106E-06
   -.421E+02 0.332E+00 0.968E+01   0.430E+02 -.321E+00 -.977E+01   -.861E+00 -.114E-01 0.968E-01   -.365E-04 -.611E-06 -.106E-06
   -.421E+02 0.332E+00 0.968E+01   0.430E+02 -.321E+00 -.977E+01   -.861E+00 -.114E-01 0.968E-01   -.365E-04 -.611E-06 -.106E-06
   -.421E+02 0.332E+00 0.968E+01   0.430E+02 -.321E+00 -.977E+01   -.861E+00 -.114E-01 0.968E-01   -.365E-04 -.611E-06 -.106E-06
   0.421E+02 -.332E+00 0.968E+01   -.430E+02 0.321E+00 -.977E+01   0.861E+00 0.114E-01 0.968E-01   0.365E-04 0.611E-06 -.106E-06
   0.421E+02 -.332E+00 0.968E+01   -.430E+02 0.321E+00 -.977E+01   0.861E+00 0.114E-01 0.968E-01   0.365E-04 0.611E-06 -.106E-06
   0.421E+02 -.332E+00 0.968E+01   -.430E+02 0.321E+00 -.977E+01   0.861E+00 0.114E-01 0.968E-01   0.365E-04 0.611E-06 -.106E-06
   0.421E+02 -.332E+00 0.968E+01   -.430E+02 0.321E+00 -.977E+01   0.861E+00 0.114E-01 0.968E-01   0.365E-04 0.611E-06 -.106E-06
   0.332E+00 -.421E+02 0.968E+01   -.321E+00 0.430E+02 -.977E+01   -.114E-01 -.861E+00 0.968E-01   -.611E-06 -.365E-04 -.106E-06
   0.332E+00 -.421E+02 0.968E+01   -.321E+00 0.430E+02 -.977E+01   -.114E-01 -.861E+00 0.968E-01   -.611E-06 -.365E-04 -.106E-06
   0.332E+00 -.421E+02 0.968E+01   -.321E+00 0.430E+02 -.977E+01   -.114E-01 -.861E+00 0.968E-01   -.611E-06 -.365E-04 -.106E-06
   0.332E+00 -.421E+02 0.968E+01   -.321E+00 0.430E+02 -.977E+01   -.114E-01 -.861E+00 0.968E-01   -.611E-06 -.365E-04 -.106E-06
   -.332E+00 0.421E+02 0.968E+01   0.321E+00 -.430E+02 -.977E+01   0.114E-01 0.861E+00 0.968E-01   0.611E-06 0.365E-04 -.106E-06
   -.332E+00 0.421E+02 0.968E+01   0.321E+00 -.430E+02 -.977E+01   0.114E-01 0.861E+00 0.968E-01   0.611E-06 0.365E-04 -.106E-06
   -.332E+00 0.421E+02 0.968E+01   0.321E+00 -.430E+02 -.977E+01   0.114E-01 0.861E+00 0.968E-01   0.611E-06 0.365E-04 -.106E-06
   -.332E+00 0.421E+02 0.968E+01   0.321E+00 -.430E+02 -.977E+01   0.114E-01 0.861E+00 0.968E-01   0.611E-06 0.365E-04 -.106E-06
   -.224E-06 0.227E-07 -.114E+02   -.107E-12 -.142E-13 0.109E+02   -.387E-24 -.129E-24 0.461E+00   0.367E-12 -.575E-12 -.504E-05
   -.224E-06 0.227E-07 -.114E+02   -.103E-12 0.000E+00 0.109E+02   -.638E-25 -.517E-25 0.461E+00   -.719E-12 -.243E-12 -.504E-05
   -.224E-06 0.227E-07 -.114E+02   -.107E-12 0.711E-14 0.109E+02   0.212E-24 -.775E-25 0.461E+00   0.590E-13 0.688E-12 -.504E-05
   -.224E-06 0.227E-07 -.114E+02   -.103E-12 0.000E+00 0.109E+02   0.864E-25 0.181E-24 0.461E+00   -.418E-12 0.430E-12 -.504E-05
   0.227E-07 -.224E-06 -.114E+02   0.142E-12 -.114E-12 0.109E+02   -.122E-24 -.129E-24 0.461E+00   -.132E-11 -.404E-12 -.504E-05
   0.227E-07 -.224E-06 -.114E+02   0.199E-12 -.114E-12 0.109E+02   0.201E-24 -.155E-24 0.461E+00   0.111E-11 -.788E-12 -.504E-05
   0.227E-07 -.224E-06 -.114E+02   0.853E-13 -.853E-13 0.109E+02   -.196E-24 -.181E-24 0.461E+00   -.141E-11 0.519E-12 -.504E-05
   0.227E-07 -.224E-06 -.114E+02   0.142E-12 -.853E-13 0.109E+02   -.703E-25 0.181E-24 0.461E+00   0.107E-11 0.657E-12 -.504E-05
   -.224E-06 0.226E-07 -.114E+02   -.711E-13 0.129E-12 0.109E+02   -.124E-24 -.258E-25 0.461E+00   0.102E-12 0.270E-12 -.504E-05
   -.224E-06 0.226E-07 -.114E+02   -.711E-13 0.122E-12 0.109E+02   -.284E-24 0.207E-24 0.461E+00   -.448E-12 0.364E-12 -.504E-05
   -.224E-06 0.227E-07 -.114E+02   -.568E-13 0.171E-12 0.109E+02   0.160E-24 -.129E-24 0.461E+00   0.641E-13 -.160E-12 -.504E-05
   -.224E-06 0.227E-07 -.114E+02   -.568E-13 0.242E-12 0.109E+02   -.679E-25 0.362E-24 0.461E+00   -.339E-12 -.474E-12 -.504E-05
   0.227E-07 -.224E-06 -.114E+02   0.182E-12 0.414E-13 0.109E+02   -.433E-24 -.155E-24 0.461E+00   -.445E-12 -.549E-14 -.504E-05
   0.227E-07 -.224E-06 -.114E+02   0.185E-12 0.414E-13 0.109E+02   -.224E-24 -.258E-25 0.461E+00   0.895E-13 0.671E-13 -.504E-05
   0.227E-07 -.224E-06 -.114E+02   0.203E-12 0.760E-13 0.109E+02   -.695E-25 0.517E-25 0.461E+00   -.356E-12 -.317E-12 -.504E-05
   0.227E-07 -.224E-06 -.114E+02   0.234E-12 0.760E-13 0.109E+02   -.832E-25 0.207E-24 0.461E+00   -.113E-12 -.420E-13 -.504E-05
   0.423E-07 -.728E-07 -.915E+01   -.577E-14 -.249E-13 0.860E+01   0.677E-25 -.355E-24 0.550E+00   -.269E-12 -.360E-12 -.105E-04
   0.423E-07 -.728E-07 -.915E+01   -.173E-13 -.284E-13 0.860E+01   -.305E-24 0.207E-24 0.550E+00   0.843E-13 -.249E-12 -.105E-04
   0.423E-07 -.728E-07 -.915E+01   -.377E-13 0.355E-13 0.860E+01   0.102E-24 0.103E-24 0.550E+00   -.398E-12 0.329E-12 -.105E-04
   0.423E-07 -.728E-07 -.915E+01   -.209E-13 0.000E+00 0.860E+01   0.189E-24 -.233E-24 0.550E+00   0.242E-12 0.358E-12 -.105E-04
   -.728E-07 0.423E-07 -.915E+01   0.000E+00 -.462E-13 0.860E+01   0.351E-24 -.123E-24 0.550E+00   0.631E-12 -.220E-12 -.105E-04
   -.728E-07 0.423E-07 -.915E+01   0.462E-13 -.462E-13 0.860E+01   0.142E-24 -.355E-25 0.550E+00   -.718E-12 -.459E-13 -.105E-04
   -.728E-07 0.423E-07 -.915E+01   0.355E-14 -.746E-13 0.860E+01   -.182E-24 0.166E-24 0.550E+00   0.565E-12 0.238E-12 -.105E-04
   -.728E-07 0.423E-07 -.915E+01   0.462E-13 -.675E-13 0.860E+01   0.269E-25 -.905E-25 0.550E+00   -.634E-12 0.170E-12 -.105E-04
   0.423E-07 -.728E-07 -.915E+01   -.533E-13 0.209E-13 0.860E+01   -.404E-26 -.233E-24 0.550E+00   -.501E-12 -.335E-12 -.105E-04
   0.423E-07 -.728E-07 -.915E+01   0.178E-13 -.964E-13 0.860E+01   0.139E-24 0.000E+00 0.550E+00   0.372E-12 -.818E-13 -.105E-04
   0.423E-07 -.728E-07 -.915E+01   -.711E-13 -.400E-14 0.860E+01   -.521E-25 0.129E-24 0.550E+00   -.727E-12 0.229E-12 -.105E-04
   0.423E-07 -.728E-07 -.915E+01   -.568E-13 -.644E-13 0.860E+01   -.412E-25 -.323E-24 0.550E+00   0.679E-12 -.319E-13 -.105E-04
   -.728E-07 0.423E-07 -.915E+01   0.201E-13 -.180E-12 0.860E+01   -.331E-24 0.517E-25 0.550E+00   0.228E-12 0.269E-14 -.105E-04
   -.728E-07 0.424E-07 -.915E+01   0.327E-13 -.173E-12 0.860E+01   0.318E-24 -.388E-25 0.550E+00   -.415E-12 0.516E-13 -.105E-04
   -.728E-07 0.423E-07 -.915E+01   0.349E-13 -.929E-13 0.860E+01   0.152E-24 0.323E-26 0.550E+00   -.508E-14 -.720E-13 -.105E-04
   -.728E-07 0.424E-07 -.915E+01   0.475E-13 -.121E-12 0.860E+01   -.322E-24 -.116E-24 0.550E+00   -.206E-12 0.284E-13 -.105E-04
 -----------------------------------------------------------------------------------------------
   -.161E-05 -.161E-05 -.193E+02   0.144E-12 -.851E-13 -.122E-11   -.321E-15 0.888E-15 0.193E+02   -.214E-11 0.150E-11 -.253E-03
 
 
 POSITION                                       TOTAL-FORCE (eV/Angst)
 -----------------------------------------------------------------------------------
      1.34636      1.33645      1.28421        -0.000192      0.000237      0.000127
      6.60073      1.41894      1.28421        -0.000192      0.000237      0.000127
      1.42885      6.59082      1.28421        -0.000192      0.000237      0.000127
      6.68321      6.67331      1.28421        -0.000192      0.000237      0.000127
      3.99049      4.00040      1.28421         0.000192     -0.000237      0.000127
      9.24486      4.08289      1.28421         0.000192     -0.000237      0.000127
      4.07298      9.25477      1.28421         0.000192     -0.000237      0.000127
      9.32734      9.33725      1.28421         0.000192     -0.000237      0.000127
      1.37322      3.94925      9.09908        -0.000237      0.000192      0.000127
      6.62758      4.03173      9.09908        -0.000237      0.000192      0.000127
      1.45570      9.20361      9.09908        -0.000237      0.000192      0.000127
      6.71007      9.28610      9.09908        -0.000237      0.000192      0.000127
      3.96364      1.38761      9.09908         0.000237     -0.000192      0.000127
      9.21800      1.47009      9.09908         0.000237     -0.000192      0.000127
      4.04612      6.64197      9.09908         0.000237     -0.000192      0.000127
      9.30049      6.72446      9.09908         0.000237     -0.000192      0.000127
      1.32206      1.33197      6.49412         0.000192     -0.000237      0.000127
      6.57643      1.41446      6.49412         0.000192     -0.000237      0.000127
      1.40455      6.58634      6.49412         0.000192     -0.000237      0.000127
      6.65892      6.66883      6.49412         0.000192     -0.000237      0.000127
      4.01479      4.00488      6.49412        -0.000192      0.000237      0.000127
      9.26915      4.08737      6.49412        -0.000192      0.000237      0.000127
      4.09728      9.25925      6.49412        -0.000192      0.000237      0.000127
      9.35164      9.34173      6.49412        -0.000192      0.000237      0.000127
      3.95916      1.36331      3.88917        -0.000237      0.000192      0.000127
      9.21352      1.44580      3.88917        -0.000237      0.000192      0.000127
      4.04164      6.61767      3.88917        -0.000237      0.000192      0.000127
      9.29601      6.70016      3.88917        -0.000237      0.000192      0.000127
      1.37770      3.97354      3.88917         0.000237     -0.000192      0.000127
      6.63206      4.05603      3.88917         0.000237     -0.000192      0.000127
      1.46018      9.22791      3.88917         0.000237     -0.000192      0.000127
      6.71455      9.31040      3.88917         0.000237     -0.000192      0.000127
      0.00000      0.00000      5.22549         0.000000     -0.000000     -0.001020
      5.25437      0.08249      5.22549         0.000000     -0.000000     -0.001020
      0.08249      5.25437      5.22549         0.000000     -0.000000     -0.001020
      5.33685      5.33685      5.22549         0.000000     -0.000000     -0.001020
      2.62718      0.04124      2.62053         0.000000     -0.000000     -0.001020
      7.88155      0.12373      2.62053         0.000000     -0.000000     -0.001020
      2.70967      5.29561      2.62053         0.000000     -0.000000     -0.001020
      7.96404      5.37810      2.62053         0.000000     -0.000000     -0.001020
      2.66843      2.66843      0.01558         0.000000     -0.000000     -0.001020
      7.92279      2.75091      0.01558         0.000000     -0.000000     -0.001020
      2.75091      7.92279      0.01558         0.000000     -0.000000     -0.001020
      8.00528      8.00528      0.01558         0.000000     -0.000000     -0.001020
      0.04124      2.62718      7.83044         0.000000     -0.000000     -0.001020
      5.29561      2.70967      7.83044         0.000000     -0.000000     -0.001020
      0.12373      7.88155      7.83044         0.000000     -0.000000     -0.001020
      5.37810      7.96404      7.83044         0.000000     -0.000000     -0.001020
      0.00000      0.00000      0.02095         0.000000     -0.000000      0.000766
      5.25437      0.08249      0.02095         0.000000     -0.000000      0.000766
      0.08249      5.25437      0.02095         0.000000     -0.000000      0.000766
      5.33685      5.33685      0.02095         0.000000     -0.000000      0.000766
      2.62718      0.04124      7.83582         0.000000     -0.000000      0.000766
      7.88155      0.12373      7.83582         0.000000     -0.000000      0.000766
      2.70967      5.29561      7.83582         0.000000     -0.000000      0.000766
      7.96404      5.37810      7.83582         0.000000     -0.000000      0.000766
      2.66843      2.66843      5.23087         0.000000     -0.000000      0.000766
      7.92279      2.75091      5.23087         0.000000     -0.000000      0.000766
      2.75091      7.92279      5.23087         0.000000     -0.000000      0.000766
      8.00528      8.00528      5.23087         0.000000     -0.000000      0.000766
      0.04124      2.62718      2.62591         0.000000     -0.000000      0.000766
      5.29561      2.70967      2.62591         0.000000     -0.000000      0.000766
      0.12373      7.88155      2.62591         0.000000     -0.000000      0.000766
      5.37810      7.96404      2.62591         0.000000     -0.000000      0.000766
 -----------------------------------------------------------------------------------
    total drift:                               -0.000002     -0.000002     -0.033006


--------------------------------------------------------------------------------------------------------



  FREE ENERGIE OF THE ION-ELECTRON SYSTEM (eV)
  ---------------------------------------------------
  free  energy   TOTEN  =      -328.01863113 eV

  energy  without entropy=     -328.01863113  energy(sigma->0) =     -328.01863113
 


--------------------------------------------------------------------------------------------------------


    POTLOK:  cpu time    0.1541: real time    0.1548


--------------------------------------------------------------------------------------------------------


 writing wavefunctions
     LOOP+:  cpu time 1855.6238: real time 2121.4698
    4ORBIT:  cpu time    0.0000: real time    0.0000
 


 total charge     
 
# of ion       s       p       d       tot
------------------------------------------
    1        1.314   2.410   0.000   3.723
    2        1.314   2.410   0.000   3.723
    3        1.314   2.410   0.000   3.723
    4        1.314   2.410   0.000   3.723
    5        1.314   2.410   0.000   3.723
    6        1.314   2.410   0.000   3.723
    7        1.314   2.410   0.000   3.723
    8        1.314   2.410   0.000   3.723
    9        1.314   2.410   0.000   3.724
   10        1.314   2.410   0.000   3.724
   11        1.314   2.410   0.000   3.724
   12        1.314   2.410   0.000   3.724
   13        1.314   2.410   0.000   3.724
   14        1.314   2.410   0.000   3.724
   15        1.314   2.410   0.000   3.724
   16        1.314   2.410   0.000   3.724
   17        1.314   2.410   0.000   3.723
   18        1.314   2.410   0.000   3.723
   19        1.314   2.410   0.000   3.723
   20        1.314   2.410   0.000   3.723
   21        1.314   2.410   0.000   3.723
   22        1.314   2.410   0.000   3.723
   23        1.314   2.410   0.000   3.723
   24        1.314   2.410   0.000   3.723
   25        1.314   2.410   0.000   3.724
   26        1.314   2.410   0.000   3.724
   27        1.314   2.410   0.000   3.724
   28        1.314   2.410   0.000   3.724
   29        1.314   2.410   0.000   3.724
   30        1.314   2.410   0.000   3.724
   31        1.314   2.410   0.000   3.724
   32        1.314   2.410   0.000   3.724
   33        0.260   6.202   8.916  15.378
   34        0.260   6.202   8.916  15.378
   35        0.260   6.202   8.916  15.378
   36        0.260   6.202   8.916  15.378
   37        0.260   6.202   8.916  15.378
   38        0.260   6.202   8.916  15.378
   39        0.260   6.202   8.916  15.378
   40        0.260   6.202   8.916  15.378
   41        0.260   6.202   8.916  15.378
   42        0.260   6.202   8.916  15.378
   43        0.260   6.202   8.916  15.378
   44        0.260   6.202   8.916  15.378
   45        0.260   6.202   8.916  15.378
   46        0.260   6.202   8.916  15.378
   47        0.260   6.202   8.916  15.378
   48        0.260   6.202   8.916  15.378
   49        0.350   6.351   5.820  12.521
   50        0.350   6.351   5.820  12.521
   51        0.350   6.351   5.820  12.521
   52        0.350   6.351   5.820  12.521
   53        0.350   6.351   5.820  12.521
   54        0.350   6.351   5.820  12.521
   55        0.350   6.351   5.820  12.521
   56        0.350   6.351   5.820  12.521
   57        0.350   6.351   5.820  12.521
   58        0.350   6.351   5.820  12.521
   59        0.350   6.351   5.820  12.521
   60        0.350   6.351   5.820  12.521
   61        0.350   6.351   5.820  12.521
   62        0.350   6.351   5.820  12.521
   63        0.350   6.351   5.820  12.521
   64        0.350   6.351   5.820  12.521
--------------------------------------------------
tot         51.789 277.968 235.783 565.540
 


 magnetization (x)
 
# of ion       s       p       d       tot
------------------------------------------
    1       -0.000  -0.008   0.000  -0.008
    2       -0.000  -0.008   0.000  -0.008
    3       -0.000  -0.008   0.000  -0.008
    4       -0.000  -0.008   0.000  -0.008
    5       -0.000  -0.008   0.000  -0.008
    6       -0.000  -0.008   0.000  -0.008
    7       -0.000  -0.008   0.000  -0.008
    8       -0.000  -0.008   0.000  -0.008
    9        0.000   0.008   0.000   0.008
   10        0.000   0.008   0.000   0.008
   11        0.000   0.008   0.000   0.008
   12        0.000   0.008   0.000   0.008
   13        0.000   0.008   0.000   0.008
   14        0.000   0.008   0.000   0.008
   15        0.000   0.008   0.000   0.008
   16        0.000   0.008   0.000   0.008
   17       -0.000  -0.008   0.000  -0.008
   18       -0.000  -0.008   0.000  -0.008
   19       -0.000  -0.008   0.000  -0.008
   20       -0.000  -0.008   0.000  -0.008
   21       -0.000  -0.008   0.000  -0.008
   22       -0.000  -0.008   0.000  -0.008
   23       -0.000  -0.008   0.000  -0.008
   24       -0.000  -0.008   0.000  -0.008
   25        0.000   0.008   0.000   0.008
   26        0.000   0.008   0.000   0.008
   27        0.000   0.008   0.000   0.008
   28        0.000   0.008   0.000   0.008
   29        0.000   0.008   0.000   0.008
   30        0.000   0.008   0.000   0.008
   31        0.000   0.008   0.000   0.008
   32        0.000   0.008   0.000   0.008
   33        0.000   0.000  -0.000   0.000
   34        0.000   0.000  -0.000   0.000
   35        0.000   0.000  -0.000   0.000
   36        0.000   0.000  -0.000   0.000
   37       -0.000  -0.000   0.000  -0.000
   38       -0.000  -0.000   0.000  -0.000
   39       -0.000  -0.000   0.000  -0.000
   40       -0.000  -0.000   0.000  -0.000
   41        0.000   0.000  -0.000   0.000
   42        0.000   0.000  -0.000   0.000
   43        0.000   0.000  -0.000   0.000
   44        0.000   0.000  -0.000   0.000
   45       -0.000  -0.000   0.000  -0.000
   46       -0.000  -0.000   0.000  -0.000
   47       -0.000  -0.000   0.000  -0.000
   48       -0.000  -0.000   0.000  -0.000
   49        0.020   0.054   3.671   3.744
   50        0.020   0.054   3.671   3.744
   51        0.020   0.054   3.671   3.744
   52        0.020   0.054   3.671   3.744
   53       -0.020  -0.054  -3.671  -3.744
   54       -0.020  -0.054  -3.671  -3.744
   55       -0.020  -0.054  -3.671  -3.744
   56       -0.020  -0.054  -3.671  -3.744
   57        0.020   0.054   3.671   3.744
   58        0.020   0.054   3.671   3.744
   59        0.020   0.054   3.671   3.744
   60        0.020   0.054   3.671   3.744
   61       -0.020  -0.054  -3.671  -3.744
   62       -0.020  -0.054  -3.671  -3.744
   63       -0.020  -0.054  -3.671  -3.744
   64       -0.020  -0.054  -3.671  -3.744
--------------------------------------------------
tot         -0.001   0.001  -0.000  -0.000
 
 BZINTS: Fermi energy:  4.951408;688.000000 electrons
         Band energy:***********;  BLOECHL correction:  0.000000

 total amount of memory used by VASP MPI-rank0   301249. kBytes
=======================================================================

   base      :      30000. kBytes
   nonl-proj :     175882. kBytes
   fftplans  :       4588. kBytes
   grid      :      69719. kBytes
   one-center:       1990. kBytes
   wavefun   :      19070. kBytes
 
  
  
 General timing and accounting informations for this job:
 ========================================================
  
                  Total CPU time used (sec):     1906.703
                            User time (sec):     1894.473
                          System time (sec):       12.230
                         Elapsed time (sec):     2174.704
  
                   Maximum memory used (kb):      671216.
                   Average memory used (kb):           0.
  
                          Minor page faults:       477682
                          Major page faults:         5445
                 Voluntary context switches:         7921
