       N       E                     dE             d eps       ncg     rms          rms(c)
DAV:   1     0.619239369152E+04    0.61924E+04   -0.50338E+05 12288   0.194E+03
DAV:   2    -0.836221021354E+02   -0.62760E+04   -0.61450E+04 12544   0.440E+02
DAV:   3    -0.371925264778E+03   -0.28830E+03   -0.28688E+03 18176   0.103E+02
DAV:   4    -0.375894111043E+03   -0.39688E+01   -0.39686E+01 12800   0.123E+01
DAV:   5    -0.375997487895E+03   -0.10338E+00   -0.10338E+00 17920   0.202E+00    0.751E+01
DAV:   6    -0.334511002375E+03    0.41486E+02   -0.59131E+02 12288   0.814E+01    0.100E+02
DAV:   7    -0.329276667564E+03    0.52343E+01   -0.11366E+02 12288   0.275E+01    0.437E+01
DAV:   8    -0.329313221138E+03   -0.36554E-01   -0.36869E+01 14848   0.210E+01    0.325E+01
DAV:   9    -0.331095673199E+03   -0.17825E+01   -0.10286E+02 15360   0.243E+01    0.235E+01
DAV:  10    -0.327418264470E+03    0.36774E+01   -0.21404E+01 15872   0.157E+01    0.276E+00
DAV:  11    -0.327541892942E+03   -0.12363E+00   -0.12776E+00 17920   0.187E+00    0.355E+00
DAV:  12    -0.327531414159E+03    0.10479E-01   -0.49599E-01 15104   0.181E+00    0.133E+00
DAV:  13    -0.327537879964E+03   -0.64658E-02   -0.50054E-02 16128   0.400E-01    0.904E-01
DAV:  14    -0.327548993730E+03   -0.11114E-01   -0.62040E-02 15872   0.391E-01    0.419E-01
DAV:  15    -0.327548704071E+03    0.28966E-03   -0.56702E-03 14336   0.190E-01    0.181E-01
DAV:  16    -0.327548901315E+03   -0.19724E-03   -0.48514E-04 16896   0.312E-02    0.130E-01
DAV:  17    -0.327549542071E+03   -0.64076E-03   -0.30019E-03 14848   0.647E-02    0.857E-02
DAV:  18    -0.327549612628E+03   -0.70557E-04   -0.22802E-04 14848   0.231E-02    0.536E-02
DAV:  19    -0.327549616820E+03   -0.41929E-05   -0.56957E-05 17152   0.124E-02    0.329E-02
DAV:  20    -0.327549622504E+03   -0.56835E-05   -0.30155E-05 14848   0.601E-03    0.242E-02
DAV:  21    -0.327549623014E+03   -0.51006E-06   -0.35552E-05 16896   0.942E-03    0.160E-02
DAV:  22    -0.327549623504E+03   -0.48980E-06   -0.23179E-06 12800   0.318E-03    0.130E-02
DAV:  23    -0.327549623882E+03   -0.37799E-06   -0.45596E-07 16896   0.973E-04    0.672E-03
DAV:  24    -0.327549623756E+03    0.12625E-06   -0.10663E-06 16128   0.200E-03    0.185E-03
DAV:  25    -0.327549623724E+03    0.31549E-07   -0.22748E-07 15872   0.780E-04    0.135E-03
DAV:  26    -0.327549623716E+03    0.76252E-08   -0.23801E-08 11520   0.269E-04
   1 F= -.32754962E+03 E0= -.32754962E+03  d E =0.000000E+00  mag=     0.0000
