 vasp.5.4.4.18Apr17-6-g9f103f2a35 (build Oct 30 2023 17:30:16) complex          
  
 executed on             LinuxIFC date 2024.06.29  00:51:34
 running on  256 total cores
 distrk:  each k-point on  256 cores,    1 groups
 distr:  one band on NCORES_PER_BAND=   1 cores,  256 groups


--------------------------------------------------------------------------------------------------------


 INCAR:
 POTCAR:    PAW_PBE S 06Sep2000                   
 POTCAR:     PAW_PBE Cu_pv 06Sep2000              
 POTCAR:     PAW_PBE Fe_pv 02Aug2007              

 ----------------------------------------------------------------------------- 
|                                                                             |
|           W    W    AA    RRRRR   N    N  II  N    N   GGGG   !!!           |
|           W    W   A  A   R    R  NN   N  II  NN   N  G    G  !!!           |
|           W    W  A    A  R    R  N N  N  II  N N  N  G       !!!           |
|           W WW W  AAAAAA  RRRRR   N  N N  II  N  N N  G  GGG   !            |
|           WW  WW  A    A  R   R   N   NN  II  N   NN  G    G                |
|           W    W  A    A  R    R  N    N  II  N    N   GGGG   !!!           |
|                                                                             |
|      For optimal performance we recommend to set                            |
|        NCORE= 4 - approx SQRT( number of cores)                             |
|      NCORE specifies how many cores store one orbital (NPAR=cpu/NCORE).     |
|      This setting can  greatly improve the performance of VASP for DFT.     |
|      The default,   NCORE=1            might be grossly inefficient         |
|      on modern multi-core architectures or massively parallel machines.     |
|      Do your own testing !!!!                                               |
|      Unfortunately you need to use the default for GW and RPA calculations. |
|      (for HF NCORE is supported but not extensively tested yet)             |
|                                                                             |
 ----------------------------------------------------------------------------- 

 POTCAR:    PAW_PBE S 06Sep2000                   
   SHA256 =  0fc7481fb0695f01bdc6462160264c5c84044ae9ec85a907d398b887a2bc3132 S/
   COPYR  = (c) Copyright 06Sep2000 Georg Kresse                                
   COPYR  = This file is part of the software VASP. Any use, copying, and all ot
   COPYR  = If you do not have a valid VASP license, you may not use, copy or di
   VRHFIN =S : s2p4                                                             
   LEXCH  = PE                                                                  
   EATOM  =   276.8230 eV,   20.3459 Ry                                         
                                                                                
   TITEL  = PAW_PBE S 06Sep2000                                                 
   LULTRA =        F    use ultrasoft PP ?                                      
   IUNSCR =        1    unscreen: 0-lin 1-nonlin 2-no                           
   RPACOR =    1.500    partial core radius                                     
   POMASS =   32.066; ZVAL   =    6.000    mass and valenz                      
   RCORE  =    1.900    outmost cutoff radius                                   
   RWIGS  =    2.200; RWIGS  =    1.164    wigner-seitz radius (au A)           
   ENMAX  =  258.689; ENMIN  =  194.016 eV                                      
   ICORE  =        2    local potential                                         
   LCOR   =        T    correct aug charges                                     
   LPAW   =        T    paw PP                                                  
   EAUG   =  335.092                                                            
   DEXC   =    0.000                                                            
   RMAX   =    1.942    core radius for proj-oper                               
   RAUG   =    1.300    factor for augmentation sphere                          
   RDEP   =    1.954    radius for radial grids                                 
   RDEPT  =    1.744    core radius for aug-charge                              
                                                                                
   Atomic configuration                                                         
    6 entries                                                                   
     n  l   j            E        occ.                                          
     1  0  0.50     -2405.8406   2.0000                                         
     2  0  0.50      -211.7007   2.0000                                         
     2  1  1.50      -156.4958   6.0000                                         
     3  0  0.50       -17.2562   2.0000                                         
     3  1  0.50        -7.0085   4.0000                                         
     3  2  1.50        -6.8029   0.0000                                         
   Description                                                                  
     l       E           TYP  RCUT    TYP  RCUT                                 
     0    -17.2561641     23  1.900                                             
     0    -15.8743224     23  1.900                                             
     1     -7.0085400     23  1.900                                             
     1     -2.7779785     23  1.900                                             
     2     -6.8029130     23  1.900                                             
  local pseudopotential read in
  partial core-charges read in
  partial kinetic energy density read in
  atomic valenz-charges read in
  non local Contribution for L=           0  read in
    real space projection operators read in
  non local Contribution for L=           0  read in
    real space projection operators read in
  non local Contribution for L=           1  read in
    real space projection operators read in
  non local Contribution for L=           1  read in
    real space projection operators read in
    PAW grid and wavefunctions read in
 
   number of l-projection  operators is LMAX  =           4
   number of lm-projection operators is LMMAX =           8
 
 POTCAR:     PAW_PBE Cu_pv 06Sep2000              
   SHA256 =  cb7b504e2ea725fe1f25c85a9ac77d4012ce94cd394135b722c4e25ec297f1cb Cu
   COPYR  = (c) Copyright 06Sep2000 Georg Kresse                                
   COPYR  = This file is part of the software VASP. Any use, copying, and all ot
   COPYR  = If you do not have a valid VASP license, you may not use, copy or di
   VRHFIN =Cu: d10 p1                                                           
   LEXCH  = PE                                                                  
   EATOM  =  4120.1201 eV,  302.8203 Ry                                         
                                                                                
   TITEL  = PAW_PBE Cu_pv 06Sep2000                                             
   LULTRA =        F    use ultrasoft PP ?                                      
   IUNSCR =        1    unscreen: 0-lin 1-nonlin 2-no                           
   RPACOR =    1.500    partial core radius                                     
   POMASS =   63.546; ZVAL   =   17.000    mass and valenz                      
   RCORE  =    2.000    outmost cutoff radius                                   
   RWIGS  =    2.000; RWIGS  =    1.058    wigner-seitz radius (au A)           
   ENMAX  =  368.648; ENMIN  =  276.486 eV                                      
   RCLOC  =    1.304    cutoff for local pot                                    
   LCOR   =        T    correct aug charges                                     
   LPAW   =        T    paw PP                                                  
   EAUG   =  758.233                                                            
   DEXC   =    0.000                                                            
   RMAX   =    2.046    core radius for proj-oper                               
   RAUG   =    1.300    factor for augmentation sphere                          
   RDEP   =    2.025    radius for radial grids                                 
   RDEPT  =    1.558    core radius for aug-charge                              
                                                                                
   Atomic configuration                                                         
    8 entries                                                                   
     n  l   j            E        occ.                                          
     1  0  0.50     -8850.2467   2.0000                                         
     2  0  0.50     -1062.3498   2.0000                                         
     2  1  1.50      -916.8226   6.0000                                         
     3  0  0.50      -114.6929   2.0000                                         
     3  1  1.50       -72.1325   6.0000                                         
     3  2  2.50        -5.0394  10.0000                                         
     4  0  0.50        -4.6097   1.0000                                         
     4  3  2.50        -1.3606   0.0000                                         
   Description                                                                  
     l       E           TYP  RCUT    TYP  RCUT                                 
     1    -72.1324777     23  1.700                                             
     1     -1.3605826     23  1.700                                             
     2     -5.0393776     23  2.000                                             
     2     -6.3999602     23  2.000                                             
     0     -4.6097062     23  1.800                                             
     0     14.1620818     23  1.800                                             
  local pseudopotential read in
  partial core-charges read in
  partial kinetic energy density read in
  atomic valenz-charges read in
  non local Contribution for L=           1  read in
    real space projection operators read in
  non local Contribution for L=           1  read in
    real space projection operators read in
  non local Contribution for L=           2  read in
    real space projection operators read in
  non local Contribution for L=           2  read in
    real space projection operators read in
  non local Contribution for L=           0  read in
    real space projection operators read in
  non local Contribution for L=           0  read in
    real space projection operators read in
    PAW grid and wavefunctions read in
 
   number of l-projection  operators is LMAX  =           6
   number of lm-projection operators is LMMAX =          18
 
 POTCAR:     PAW_PBE Fe_pv 02Aug2007              
   SHA256 =  5d22e414b1f82158bf2c7ecb8b97b28fd0923e48cadc1c3bf74d524558f5dd32 Fe
   COPYR  = (c) Copyright 02Aug2007 Georg Kresse                                
   COPYR  = This file is part of the software VASP. Any use, copying, and all ot
   COPYR  = If you do not have a valid VASP license, you may not use, copy or di
   VRHFIN =Fe:  3pd7s1                                                          
   LEXCH  = PE                                                                  
   EATOM  =  2457.4239 eV,  180.6156 Ry                                         
                                                                                
   TITEL  = PAW_PBE Fe_pv 02Aug2007                                             
   LULTRA =        F    use ultrasoft PP ?                                      
   IUNSCR =        1    unscreen: 0-lin 1-nonlin 2-no                           
   RPACOR =    1.750    partial core radius                                     
   POMASS =   55.847; ZVAL   =   14.000    mass and valenz                      
   RCORE  =    2.200    outmost cutoff radius                                   
   RWIGS  =    2.200; RWIGS  =    1.164    wigner-seitz radius (au A)           
   ENMAX  =  293.238; ENMIN  =  219.928 eV                                      
   ICORE  =        3    local potential                                         
   LCOR   =        T    correct aug charges                                     
   LPAW   =        T    paw PP                                                  
   EAUG   =  578.342                                                            
   DEXC   =    0.000                                                            
   RMAX   =    2.249    core radius for proj-oper                               
   RAUG   =    1.300    factor for augmentation sphere                          
   RDEP   =    2.296    radius for radial grids                                 
   RDEPT  =    1.766    core radius for aug-charge                              
                                                                                
   Atomic configuration                                                         
    8 entries                                                                   
     n  l   j            E        occ.                                          
     1  0  0.50     -6993.8440   2.0000                                         
     2  0  0.50      -814.6047   2.0000                                         
     2  1  1.50      -693.3689   6.0000                                         
     3  0  0.50       -89.4732   2.0000                                         
     3  1  1.50       -55.6373   6.0000                                         
     3  2  2.50        -3.8151   7.0000                                         
     4  0  0.50        -4.2551   1.0000                                         
     4  3  2.50        -1.3606   0.0000                                         
   Description                                                                  
     l       E           TYP  RCUT    TYP  RCUT                                 
     1    -55.6372668     23  2.000                                             
     1     -5.4423304     23  2.000                                             
     2     -3.8151096     23  2.200                                             
     2     -5.1756922     23  2.200                                             
     0     -4.2550951     23  2.200                                             
     0     27.2116520     23  2.200                                             
     3     -1.3605826     23  2.200                                             
  local pseudopotential read in
  partial core-charges read in
  partial kinetic energy density read in
  atomic valenz-charges read in
  non local Contribution for L=           1  read in
    real space projection operators read in
  non local Contribution for L=           1  read in
    real space projection operators read in
  non local Contribution for L=           2  read in
    real space projection operators read in
  non local Contribution for L=           2  read in
    real space projection operators read in
  non local Contribution for L=           0  read in
    real space projection operators read in
  non local Contribution for L=           0  read in
    real space projection operators read in
    PAW grid and wavefunctions read in
 
   number of l-projection  operators is LMAX  =           6
   number of lm-projection operators is LMMAX =          18
 

 ----------------------------------------------------------------------------- 
|                                                                             |
|  ADVICE TO THIS USER RUNNING 'VASP/VAMP'   (HEAR YOUR MASTER'S VOICE ...):  |
|                                                                             |
|      You have a (more or less) 'large supercell' and for larger cells       |
|      it might be more efficient to use real space projection opertators     |
|      So try LREAL= Auto  in the INCAR   file.                               |
|      Mind:          For very  accurate calculation you might also keep the  |
|      reciprocal projection scheme          (i.e. LREAL=.FALSE.)             |
|                                                                             |
 ----------------------------------------------------------------------------- 


 ----------------------------------------------------------------------------- 
|                                                                             |
|  ADVICE TO THIS USER RUNNING 'VASP/VAMP'   (HEAR YOUR MASTER'S VOICE ...):  |
|                                                                             |
|      You enforced a specific xc-type in the INCAR file,                     |
|      a different type was found on the POTCAR file                          |
|          I HOPE YOU KNOW, WHAT YOU ARE  DOING                               |
|                                                                             |
 ----------------------------------------------------------------------------- 

  PAW_PBE S 06Sep2000                   :
 energy of atom  1       EATOM= -276.8230
 kinetic energy error for atom=    0.0007 (will be added to EATOM!!)
   PAW_PBE Cu_pv 06Sep2000              :
 energy of atom  2       EATOM=-4120.1201
 kinetic energy error for atom=    0.0094 (will be added to EATOM!!)
   PAW_PBE Fe_pv 02Aug2007              :
 energy of atom  3       EATOM=-2457.4239
 kinetic energy error for atom=    0.0025 (will be added to EATOM!!)
 
 
 POSCAR: Fe16 Cu16 S32                           
  positions in direct lattice
  No initial velocities read in
 exchange correlation table for  LEXCH =       14
   RHO(1)=    0.500       N(1)  =     2000
   RHO(2)=  100.500       N(2)  =     4000
 


--------------------------------------------------------------------------------------------------------


 ion  position               nearest neighbor table
   1  0.126  0.125  0.121-  37 2.26  61 2.27  41 2.27  49 2.29
   2  0.626  0.125  0.121-  38 2.26  62 2.27  42 2.27  50 2.29
   3  0.126  0.625  0.121-  39 2.26  63 2.27  43 2.27  51 2.29
   4  0.626  0.625  0.121-  40 2.26  64 2.27  44 2.27  52 2.29
   5  0.374  0.375  0.121-  39 2.26  62 2.27  41 2.27  52 2.29
   6  0.874  0.375  0.121-  40 2.26  61 2.27  42 2.27  51 2.29
   7  0.374  0.875  0.121-  37 2.26  64 2.27  43 2.27  50 2.29
   8  0.874  0.875  0.121-  38 2.26  63 2.27  44 2.27  49 2.29
   9  0.125  0.374  0.871-  41 2.26  51 2.27  45 2.27  55 2.29
  10  0.625  0.374  0.871-  42 2.26  52 2.27  46 2.27  56 2.29
  11  0.125  0.874  0.871-  43 2.26  49 2.27  47 2.27  53 2.29
  12  0.625  0.874  0.871-  44 2.26  50 2.27  48 2.27  54 2.29
  13  0.375  0.126  0.871-  41 2.26  50 2.27  46 2.27  53 2.29
  14  0.875  0.126  0.871-  42 2.26  49 2.27  45 2.27  54 2.29
  15  0.375  0.626  0.871-  43 2.26  52 2.27  48 2.27  55 2.29
  16  0.875  0.626  0.871-  44 2.26  51 2.27  47 2.27  56 2.29
  17  0.124  0.125  0.621-  45 2.26  53 2.27  33 2.27  57 2.29
  18  0.624  0.125  0.621-  46 2.26  54 2.27  34 2.27  58 2.29
  19  0.124  0.625  0.621-  47 2.26  55 2.27  35 2.27  59 2.29
  20  0.624  0.625  0.621-  48 2.26  56 2.27  36 2.27  60 2.29
  21  0.376  0.375  0.621-  46 2.26  55 2.27  36 2.27  57 2.29
  22  0.876  0.375  0.621-  45 2.26  56 2.27  35 2.27  58 2.29
  23  0.376  0.875  0.621-  48 2.26  53 2.27  34 2.27  59 2.29
  24  0.876  0.875  0.621-  47 2.26  54 2.27  33 2.27  60 2.29
  25  0.375  0.124  0.371-  34 2.26  57 2.27  37 2.27  62 2.29
  26  0.875  0.124  0.371-  33 2.26  58 2.27  38 2.27  61 2.29
  27  0.375  0.624  0.371-  36 2.26  59 2.27  39 2.27  64 2.29
  28  0.875  0.624  0.371-  35 2.26  60 2.27  40 2.27  63 2.29
  29  0.125  0.376  0.371-  35 2.26  57 2.27  39 2.27  61 2.29
  30  0.625  0.376  0.371-  36 2.26  58 2.27  40 2.27  62 2.29
  31  0.125  0.876  0.371-  33 2.26  59 2.27  37 2.27  63 2.29
  32  0.625  0.876  0.371-  34 2.26  60 2.27  38 2.27  64 2.29
  33  0.000  0.000  0.503-  26 2.26  31 2.26  17 2.27  24 2.27
  34  0.500  0.000  0.503-  25 2.26  32 2.26  18 2.27  23 2.27
  35  0.000  0.500  0.503-  28 2.26  29 2.26  19 2.27  22 2.27
  36  0.500  0.500  0.503-  27 2.26  30 2.26  20 2.27  21 2.27
  37  0.250  0.000  0.253-   1 2.26   7 2.26  25 2.27  31 2.27
  38  0.750  0.000  0.253-   2 2.26   8 2.26  26 2.27  32 2.27
  39  0.250  0.500  0.253-   3 2.26   5 2.26  27 2.27  29 2.27
  40  0.750  0.500  0.253-   4 2.26   6 2.26  28 2.27  30 2.27
  41  0.250  0.250  0.003-   9 2.26  13 2.26   1 2.27   5 2.27
  42  0.750  0.250  0.003-  10 2.26  14 2.26   2 2.27   6 2.27
  43  0.250  0.750  0.003-  11 2.26  15 2.26   3 2.27   7 2.27
  44  0.750  0.750  0.003-  12 2.26  16 2.26   4 2.27   8 2.27
  45  0.000  0.250  0.753-  17 2.26  22 2.26   9 2.27  14 2.27
  46  0.500  0.250  0.753-  18 2.26  21 2.26  10 2.27  13 2.27
  47  0.000  0.750  0.753-  19 2.26  24 2.26  11 2.27  16 2.27
  48  0.500  0.750  0.753-  20 2.26  23 2.26  12 2.27  15 2.27
  49  0.000  0.000  0.005-  11 2.27  14 2.27   1 2.29   8 2.29
  50  0.500  0.000  0.005-  12 2.27  13 2.27   2 2.29   7 2.29
  51  0.000  0.500  0.005-   9 2.27  16 2.27   3 2.29   6 2.29
  52  0.500  0.500  0.005-  10 2.27  15 2.27   4 2.29   5 2.29
  53  0.250  0.000  0.755-  17 2.27  23 2.27  11 2.29  13 2.29
  54  0.750  0.000  0.755-  18 2.27  24 2.27  12 2.29  14 2.29
  55  0.250  0.500  0.755-  19 2.27  21 2.27   9 2.29  15 2.29
  56  0.750  0.500  0.755-  20 2.27  22 2.27  10 2.29  16 2.29
  57  0.250  0.250  0.505-  25 2.27  29 2.27  17 2.29  21 2.29
  58  0.750  0.250  0.505-  26 2.27  30 2.27  18 2.29  22 2.29
  59  0.250  0.750  0.505-  27 2.27  31 2.27  19 2.29  23 2.29
  60  0.750  0.750  0.505-  28 2.27  32 2.27  20 2.29  24 2.29
  61  0.000  0.250  0.255-   1 2.27   6 2.27  26 2.29  29 2.29
  62  0.500  0.250  0.255-   2 2.27   5 2.27  25 2.29  30 2.29
  63  0.000  0.750  0.255-   3 2.27   8 2.27  28 2.29  31 2.29
  64  0.500  0.750  0.255-   4 2.27   7 2.27  27 2.29  32 2.29
 
  LATTYP: Found a base centered orthorhombic cell.
 ALAT       =    14.3036218420
 B/A-ratio  =     1.0761188145
 C/A-ratio  =     0.7291309233
  
  Lattice vectors:
  
 A1 = (  10.4991280000,   0.3849400000,   0.0000000000)
 A2 = (  -0.3849400000, -10.4991280000,   0.0000000000)
 A3 = (   0.0000000000,   0.0000000000, -10.4292130000)


Analysis of symmetry for initial positions (statically):
=====================================================================
 Subroutine PRICEL returns following result:
 
  LATTYP: Found a face centered orthorhombic cell.
 ALAT       =     7.1518109210
 B/A-ratio  =     1.0761188145
 C/A-ratio  =     1.4582618466
  
  Lattice vectors:
  
 A1 = (  -2.7210170000,  -2.7210170000,   5.2146065000)
 A2 = (  -2.5285470000,   2.5285470000,   5.2146065000)
 A3 = (  -5.2495640000,  -0.1924700000,   0.0000000000)
 
   8 primitive cells build up your supercell.
 

 Routine SETGRP: Setting up the symmetry group for a 
 base centered orthorhombic supercell.


 Subroutine GETGRP returns: Found  4 space group operations
 (whereof  2 operations were pure point group operations)
 out of a pool of  8 trial point group operations.


The static configuration has the point symmetry C_2 .
 The point group associated with its full space group is C_2v.


Analysis of symmetry for dynamics (positions and initial velocities):
=====================================================================
 Subroutine PRICEL returns following result:
 
  LATTYP: Found a face centered orthorhombic cell.
 ALAT       =     7.1518109210
 B/A-ratio  =     1.0761188145
 C/A-ratio  =     1.4582618466
  
  Lattice vectors:
  
 A1 = (  -2.7210170000,  -2.7210170000,   5.2146065000)
 A2 = (  -2.5285470000,   2.5285470000,   5.2146065000)
 A3 = (  -5.2495640000,  -0.1924700000,   0.0000000000)
 
   8 primitive cells build up your supercell.
 

 Routine SETGRP: Setting up the symmetry group for a 
 base centered orthorhombic supercell.


 Subroutine GETGRP returns: Found  4 space group operations
 (whereof  2 operations were pure point group operations)
 out of a pool of  8 trial point group operations.


The dynamic configuration has the point symmetry C_2 .
 The point group associated with its full space group is C_2v.


Analysis of structural, dynamic, and magnetic symmetry:
=====================================================================
 Subroutine PRICEL returns following result:
 
  LATTYP: Found a face centered orthorhombic cell.
 ALAT       =     7.1518109210
 B/A-ratio  =     1.0761188145
 C/A-ratio  =     1.4582618466
  
  Lattice vectors:
  
 A1 = (  -2.7210170000,  -2.7210170000,   5.2146065000)
 A2 = (  -2.5285470000,   2.5285470000,   5.2146065000)
 A3 = (  -5.2495640000,  -0.1924700000,   0.0000000000)
 
   8 primitive cells build up your supercell.
 

 Routine SETGRP: Setting up the symmetry group for a 
 base centered orthorhombic supercell.


 Subroutine GETGRP returns: Found  4 space group operations
 (whereof  2 operations were pure point group operations)
 out of a pool of  8 trial point group operations.


The magnetic configuration has the point symmetry C_2 .
 The point group associated with its full space group is C_2v.


 Subroutine INISYM returns: Found  4 space group operations
 (whereof  2 operations are pure point group operations),
 and found     8 'primitive' translations

 
 
 KPOINTS: Automatic mesh                          

Automatic generation of k-mesh.
Space group operators:
 irot       det(A)        alpha          n_x          n_y          n_z        tau_x        tau_y        tau_z
    1     1.000000     0.000000     1.000000     0.000000     0.000000     0.000000     0.000000     0.000000
    2     1.000000   180.000000     0.000000     0.000000     1.000000     0.000000     0.000000     0.000000
    3    -1.000000   179.999999     0.707107     0.707107     0.000000    -0.750000     0.000000     0.750000
    4    -1.000000   179.999999     0.707107    -0.707107     0.000000    -0.750000     0.000000     0.750000
 
 Subroutine IBZKPT returns following result:
 ===========================================
 
 Found      6 irreducible k-points:
 
 Following reciprocal coordinates:
            Coordinates               Weight
  0.000000  0.000000  0.000000      1.000000
  0.500000 -0.000000  0.000000      2.000000
  0.500000  0.500000  0.000000      1.000000
  0.000000  0.000000  0.500000      1.000000
  0.500000 -0.000000  0.500000      2.000000
  0.500000  0.500000  0.500000      1.000000
 
 Following cartesian coordinates:
            Coordinates               Weight
  0.000000  0.000000  0.000000      1.000000
  0.047687 -0.001748  0.000000      2.000000
  0.045939  0.045939  0.000000      1.000000
  0.000000  0.000000  0.047942      1.000000
  0.047687 -0.001748  0.047942      2.000000
  0.045939  0.045939  0.047942      1.000000
 
 TETIRR: Found     12 inequivalent tetrahedra from       48
 
 Subroutine IBZKPT_HF returns following result:
 ==============================================
 
 Found      8 k-points in 1st BZ
 the following      8 k-points will be used (e.g. in the exchange kernel)
 Following reciprocal coordinates:   # in IRBZ
  0.000000  0.000000  0.000000    0.12500000   1 t-inv F
  0.500000 -0.000000  0.000000    0.12500000   2 t-inv F
  0.500000  0.500000  0.000000    0.12500000   3 t-inv F
  0.000000  0.000000  0.500000    0.12500000   4 t-inv F
  0.500000 -0.000000  0.500000    0.12500000   5 t-inv F
  0.500000  0.500000  0.500000    0.12500000   6 t-inv F
  0.000000 -0.500000  0.000000    0.12500000   2 t-inv F spinflp
  0.000000 -0.500000  0.500000    0.12500000   5 t-inv F spinflp


--------------------------------------------------------------------------------------------------------




 Dimension of arrays:
   k-points           NKPTS =      6   k-points in BZ     NKDIM =      6   number of bands    NBANDS=    512
   number of dos      NEDOS =    301   number of ions     NIONS =     64
   non local maximal  LDIM  =      6   non local SUM 2l+1 LMDIM =     18
   total plane-waves  NPLWV = 829440
   max r-space proj   IRMAX =      1   max aug-charges    IRDMAX=  22958
   dimension x,y,z NGX =    96 NGY =   96 NGZ =   90
   dimension x,y,z NGXF=   192 NGYF=  192 NGZF=  180
   support grid    NGXF=   192 NGYF=  192 NGZF=  180
   ions per type =              32  16  16
   NGX,Y,Z   is equivalent  to a cutoff of  15.19, 15.19, 14.35 a.u.
   NGXF,Y,Z  is equivalent  to a cutoff of  30.38, 30.38, 28.69 a.u.

 SYSTEM =  CuFeS2                                  
 POSCAR =  Fe16 Cu16 S32                           

 Startparameter for this run:
   NWRITE =      2    write-flag & timer
   PREC   = accura    normal or accurate (medium, high low for compatibility)
   ISTART =      0    job   : 0-new  1-cont  2-samecut
   ICHARG =      1    charge: 1-file 2-atom 10-const
   ISPIN  =      2    spin polarized calculation?
   LNONCOLLINEAR =      F non collinear calculations
   LSORBIT =      F    spin-orbit coupling
   INIWAV =      1    electr: 0-lowe 1-rand  2-diag
   LASPH  =      F    aspherical Exc in radial PAW
   METAGGA=      F    non-selfconsistent MetaGGA calc.

 Electronic Relaxation 1
   ENCUT  =  700.0 eV  51.45 Ry    7.17 a.u.  22.66 22.66 22.50*2*pi/ulx,y,z
   ENINI  =  700.0     initial cutoff
   ENAUG  =  758.2 eV  augmentation charge cutoff
   NELM   =    500;   NELMIN=  2; NELMDL=  0     # of ELM steps 
   EDIFF  = 0.1E-07   stopping-criterion for ELM
   LREAL  =      F    real-space projection
   NLSPLINE    = F    spline interpolate recip. space projectors
   LCOMPAT=      F    compatible to vasp.4.4
   GGA_COMPAT  = T    GGA compatible to vasp.4.4-vasp.4.6
   LMAXPAW     = -100 max onsite density
   LMAXMIX     =    4 max onsite mixed and CHGCAR
   VOSKOWN=      0    Vosko Wilk Nusair interpolation
   ROPT   =    0.00000   0.00000   0.00000
 Ionic relaxation
   EDIFFG = -.1E-04   stopping-criterion for IOM
   NSW    =      0    number of steps for IOM
   NBLOCK =      1;   KBLOCK =      1    inner block; outer block 
   IBRION =     -1    ionic relax: 0-MD 1-quasi-New 2-CG
   NFREE  =      0    steps in history (QN), initial steepest desc. (CG)
   ISIF   =      2    stress and relaxation
   IWAVPR =     10    prediction:  0-non 1-charg 2-wave 3-comb
   ISYM   =      2    0-nonsym 1-usesym 2-fastsym
   LCORR  =      T    Harris-Foulkes like correction to forces

   POTIM  = 0.5000    time-step for ionic-motion
   TEIN   =    0.0    initial temperature
   TEBEG  =    0.0;   TEEND  =   0.0 temperature during run
   SMASS  =  -3.00    Nose mass-parameter (am)
   estimated Nose-frequenzy (Omega)   =  0.10E-29 period in steps =****** mass=  -0.252E-26a.u.
   SCALEE = 1.0000    scale energy and forces
   NPACO  =    256;   APACO  = 16.0  distance and # of slots for P.C.
   PSTRESS=    0.0 pullay stress

  Mass of Ions in am
   POMASS =  32.07 63.55 55.85
  Ionic Valenz
   ZVAL   =   6.00 17.00 14.00
  Atomic Wigner-Seitz radii
   RWIGS  =  -1.00 -1.00 -1.00
  virtual crystal weights 
   VCA    =   1.00  1.00  1.00
   NELECT =     688.0000    total number of electrons
   NUPDOWN=      -1.0000    fix difference up-down

 DOS related values:
   EMIN   =  10.00;   EMAX   =-10.00  energy-range for DOS
   EFERMI =   0.00
   ISMEAR =    -5;   SIGMA  =   0.03  broadening in eV -4-tet -1-fermi 0-gaus

 Electronic relaxation 2 (details)
   IALGO  =     38    algorithm
   LDIAG  =      T    sub-space diagonalisation (order eigenvalues)
   LSUBROT=      F    optimize rotation matrix (better conditioning)
   TURBO    =      0    0=normal 1=particle mesh
   IRESTART =      0    0=no restart 2=restart with 2 vectors
   NREBOOT  =      0    no. of reboots
   NMIN     =      0    reboot dimension
   EREF     =   0.00    reference energy to select bands
   IMIX   =      4    mixing-type and parameters
     AMIX     =   0.40;   BMIX     =  1.00
     AMIX_MAG =   1.60;   BMIX_MAG =  1.00
     AMIN     =   0.10
     WC   =   100.;   INIMIX=   1;  MIXPRE=   1;  MAXMIX= -45

 Intra band minimization:
   WEIMIN = 0.0000     energy-eigenvalue tresh-hold
   EBREAK =  0.49E-11  absolut break condition
   DEPER  =   0.30     relativ break condition  

   TIME   =   0.40     timestep for ELM

  volume/ion in A,a.u.               =      17.94       121.06
  Fermi-wavevector in a.u.,A,eV,Ry     =   1.380214  2.608226 25.918965  1.904990
  Thomas-Fermi vector in A             =   2.505112
 
 Write flags
   LWAVE        =      T    write WAVECAR
   LDOWNSAMPLE  =      F    k-point downsampling of WAVECAR
   LCHARG       =      T    write CHGCAR
   LVTOT        =      F    write LOCPOT, total local potential
   LVHAR        =      F    write LOCPOT, Hartree potential only
   LELF         =      F    write electronic localiz. function (ELF)
   LORBIT       =     11    0 simple, 1 ext, 2 COOP (PROOUT), +10 PAW based schemes


 Dipole corrections
   LMONO  =      F    monopole corrections only (constant potential shift)
   LDIPOL =      F    correct potential (dipole corrections)
   IDIPOL =      0    1-x, 2-y, 3-z, 4-all directions 
   EPSILON=  1.0000000 bulk dielectric constant

 LDA+U is selected, type is set to LDAUTYPE =  2
   angular momentum for each species LDAUL =     2    2    2
   U (eV)           for each species LDAUU =   0.0  0.1  4.7
   J (eV)           for each species LDAUJ =   0.0  0.0  0.0
 Exchange correlation treatment:
   GGA     =    PS    GGA type
   LEXCH   =    14    internal setting for exchange type
   VOSKOWN=      0    Vosko Wilk Nusair interpolation
   LHFCALC =     F    Hartree Fock is set to
   LHFONE  =     F    Hartree Fock one center treatment
   AEXX    =    0.0000 exact exchange contribution

 Linear response parameters
   LEPSILON=     F    determine dielectric tensor
   LRPA    =     F    only Hartree local field effects (RPA)
   LNABLA  =     F    use nabla operator in PAW spheres
   LVEL    =     F    velocity operator in full k-point grid
   LINTERFAST=   F  fast interpolation
   KINTER  =     0    interpolate to denser k-point grid
   CSHIFT  =0.1000    complex shift for real part using Kramers Kronig
   OMEGAMAX=  -1.0    maximum frequency
   DEG_THRESHOLD= 0.2000000E-02 threshold for treating states as degnerate
   RTIME   =   -0.100 relaxation time in fs
  (WPLASMAI=    0.000 imaginary part of plasma frequency in eV, 0.658/RTIME)
   DFIELD  = 0.0000000 0.0000000 0.0000000 field for delta impulse in time
 
 Orbital magnetization related:
   ORBITALMAG=     F  switch on orbital magnetization
   LCHIMAG   =     F  perturbation theory with respect to B field
   DQ        =  0.001000  dq finite difference perturbation B field
   LLRAUG    =     F  two centre corrections for induced B field

 PEAD related settings:
   LPEAD      =     T    switch on PEAD
   IPEAD      =     4    finite difference order for dpsi/dk
   LCALCPOL   =     T    calculate macroscopic polarization
   LCALCEPS   =     F    calculate dielectric tensor
   EFIELD_PEAD=    0.0000    0.0000    0.0000
   SKIP_EDOTP =     F
   LRPA       =     F
   SKIP_SCF   =     F


--------------------------------------------------------------------------------------------------------


 Static calculation
 charge density and potential will be updated during run
 spin polarized calculation
 Variant of blocked Davidson
 Davidson routine will perform the subspace rotation
 perform sub-space diagonalisation
    after iterative eigenvector-optimisation
 modified Broyden-mixing scheme, WC =      100.0
 initial mixing is a Kerker type mixing with AMIX =  0.4000 and BMIX =      1.0000
 Hartree-type preconditioning will be used
 using additional bands          168
 reciprocal scheme for non local part
 use partial core corrections
 calculate Harris-corrections to forces 
   (improved forces if not selfconsistent)
 use gradient corrections 
 use of overlap-Matrix (Vanderbilt PP)
 Fermi weights with tetrahedron method with Bloechl corrections


--------------------------------------------------------------------------------------------------------


  energy-cutoff  :      700.00
  volume of cell :     1148.08
      direct lattice vectors                 reciprocal lattice vectors
    10.499128000  0.384940000  0.000000000     0.095374212 -0.003496800  0.000000000
     0.384940000 10.499128000  0.000000000    -0.003496800  0.095374212  0.000000000
     0.000000000  0.000000000 10.429213000     0.000000000  0.000000000  0.095884512

  length of vectors
    10.506182350 10.506182350 10.429213000     0.095438294  0.095438294  0.095884512


 
 k-points in units of 2pi/SCALE and weight: Automatic mesh                          
   0.00000000  0.00000000  0.00000000       0.125
   0.04768711 -0.00174840  0.00000000       0.250
   0.04593871  0.04593871  0.00000000       0.125
   0.00000000  0.00000000  0.04794226       0.125
   0.04768711 -0.00174840  0.04794226       0.250
   0.04593871  0.04593871  0.04794226       0.125
 
 k-points in reciprocal lattice and weights: Automatic mesh                          
   0.00000000  0.00000000  0.00000000       0.125
   0.50000000 -0.00000000  0.00000000       0.250
   0.50000000  0.50000000  0.00000000       0.125
   0.00000000  0.00000000  0.50000000       0.125
   0.50000000 -0.00000000  0.50000000       0.250
   0.50000000  0.50000000  0.50000000       0.125
 
 position of ions in fractional coordinates (direct lattice) 
   0.12609300  0.12541600  0.12098600
   0.62609300  0.12541600  0.12098600
   0.12609300  0.62541600  0.12098600
   0.62609300  0.62541600  0.12098600
   0.37390700  0.37458400  0.12098600
   0.87390700  0.37458400  0.12098600
   0.37390700  0.87458400  0.12098600
   0.87390700  0.87458400  0.12098600
   0.12458400  0.37390700  0.87098600
   0.62458400  0.37390700  0.87098600
   0.12458400  0.87390700  0.87098600
   0.62458400  0.87390700  0.87098600
   0.37541600  0.12609300  0.87098600
   0.87541600  0.12609300  0.87098600
   0.37541600  0.62609300  0.87098600
   0.87541600  0.62609300  0.87098600
   0.12390700  0.12458400  0.62098600
   0.62390700  0.12458400  0.62098600
   0.12390700  0.62458400  0.62098600
   0.62390700  0.62458400  0.62098600
   0.37609300  0.37541600  0.62098600
   0.87609300  0.37541600  0.62098600
   0.37609300  0.87541600  0.62098600
   0.87609300  0.87541600  0.62098600
   0.37458400  0.12390700  0.37098600
   0.87458400  0.12390700  0.37098600
   0.37458400  0.62390700  0.37098600
   0.87458400  0.62390700  0.37098600
   0.12541600  0.37609300  0.37098600
   0.62541600  0.37609300  0.37098600
   0.12541600  0.87609300  0.37098600
   0.62541600  0.87609300  0.37098600
   0.00000000  0.00000000  0.50348200
   0.50000000  0.00000000  0.50348200
   0.00000000  0.50000000  0.50348200
   0.50000000  0.50000000  0.50348200
   0.25000000  0.00000000  0.25348200
   0.75000000  0.00000000  0.25348200
   0.25000000  0.50000000  0.25348200
   0.75000000  0.50000000  0.25348200
   0.25000000  0.25000000  0.00348200
   0.75000000  0.25000000  0.00348200
   0.25000000  0.75000000  0.00348200
   0.75000000  0.75000000  0.00348200
   0.00000000  0.25000000  0.75348200
   0.50000000  0.25000000  0.75348200
   0.00000000  0.75000000  0.75348200
   0.50000000  0.75000000  0.75348200
   0.00000000  0.00000000  0.00454700
   0.50000000  0.00000000  0.00454700
   0.00000000  0.50000000  0.00454700
   0.50000000  0.50000000  0.00454700
   0.25000000  0.00000000  0.75454700
   0.75000000  0.00000000  0.75454700
   0.25000000  0.50000000  0.75454700
   0.75000000  0.50000000  0.75454700
   0.25000000  0.25000000  0.50454700
   0.75000000  0.25000000  0.50454700
   0.25000000  0.75000000  0.50454700
   0.75000000  0.75000000  0.50454700
   0.00000000  0.25000000  0.25454700
   0.50000000  0.25000000  0.25454700
   0.00000000  0.75000000  0.25454700
   0.50000000  0.75000000  0.25454700
 
 position of ions in cartesian coordinates  (Angst):
   1.37214418  1.36529688  1.26178876
   6.62170818  1.55776688  1.26178876
   1.56461418  6.61486088  1.26178876
   6.81417818  6.80733088  1.26178876
   4.06988982  4.07673712  1.26178876
   9.31945382  4.26920712  1.26178876
   4.26235982  9.32630112  1.26178876
   9.51192382  9.51877112  1.26178876
   1.45195512  3.97365482  9.08369851
   6.70151912  4.16612482  9.08369851
   1.64442512  9.22321882  9.08369851
   6.89398912  9.41568882  9.08369851
   3.99007888  1.46837918  9.08369851
   9.23964288  1.66084918  9.08369851
   4.18254888  6.71794318  9.08369851
   9.43211288  6.91041318  9.08369851
   1.34887282  1.35572012  6.47639526
   6.59843682  1.54819012  6.47639526
   1.54134282  6.60528412  6.47639526
   6.79090682  6.79775412  6.47639526
   4.09316118  4.08631388  6.47639526
   9.34272518  4.27878388  6.47639526
   4.28563118  9.33587788  6.47639526
   9.53519518  9.52834788  6.47639526
   3.98050212  1.44510782  3.86909201
   9.23006612  1.63757782  3.86909201
   4.17297212  6.69467182  3.86909201
   9.42253612  6.88714182  3.86909201
   1.46153188  3.99692618  3.86909201
   6.71109588  4.18939618  3.86909201
   1.65400188  9.24649018  3.86909201
   6.90356588  9.43896018  3.86909201
   0.00000000  0.00000000  5.25092102
   5.24956400  0.19247000  5.25092102
   0.19247000  5.24956400  5.25092102
   5.44203400  5.44203400  5.25092102
   2.62478200  0.09623500  2.64361777
   7.87434600  0.28870500  2.64361777
   2.81725200  5.34579900  2.64361777
   8.06681600  5.53826900  2.64361777
   2.72101700  2.72101700  0.03631452
   7.97058100  2.91348700  0.03631452
   2.91348700  7.97058100  0.03631452
   8.16305100  8.16305100  0.03631452
   0.09623500  2.62478200  7.85822427
   5.34579900  2.81725200  7.85822427
   0.28870500  7.87434600  7.85822427
   5.53826900  8.06681600  7.85822427
   0.00000000  0.00000000  0.04742163
   5.24956400  0.19247000  0.04742163
   0.19247000  5.24956400  0.04742163
   5.44203400  5.44203400  0.04742163
   2.62478200  0.09623500  7.86933138
   7.87434600  0.28870500  7.86933138
   2.81725200  5.34579900  7.86933138
   8.06681600  5.53826900  7.86933138
   2.72101700  2.72101700  5.26202813
   7.97058100  2.91348700  5.26202813
   2.91348700  7.97058100  5.26202813
   8.16305100  8.16305100  5.26202813
   0.09623500  2.62478200  2.65472488
   5.34579900  2.81725200  2.65472488
   0.28870500  7.87434600  2.65472488
   5.53826900  8.06681600  2.65472488
 


--------------------------------------------------------------------------------------------------------


 k-point  1 :   0.0000 0.0000 0.0000  plane waves:   48303
 k-point  2 :   0.5000-0.0000 0.0000  plane waves:   48318
 k-point  3 :   0.5000 0.5000 0.0000  plane waves:   48328
 k-point  4 :   0.0000 0.0000 0.5000  plane waves:   48252
 k-point  5 :   0.5000-0.0000 0.5000  plane waves:   48288
 k-point  6 :   0.5000 0.5000 0.5000  plane waves:   48212

 maximum and minimum number of plane-waves per node :     48328    48212

 maximum number of plane-waves:     48328
 maximum index in each direction: 
   IXMAX=   22   IYMAX=   22   IZMAX=   22
   IXMIN=  -23   IYMIN=  -23   IZMIN=  -22


 serial   3D FFT for wavefunctions
 parallel 3D FFT for charge:
    minimum data exchange during FFTs selected (reduces bandwidth)


 total amount of memory used by VASP MPI-rank0   300225. kBytes
=======================================================================

   base      :      30000. kBytes
   nonl-proj :     174956. kBytes
   fftplans  :       4588. kBytes
   grid      :      69719. kBytes
   one-center:       1990. kBytes
   wavefun   :      18972. kBytes
 
     INWAV:  cpu time    0.0000: real time    0.0000
 Broyden mixing: mesh for mixing (old mesh)
   NGX = 45   NGY = 45   NGZ = 45
  (NGX  =192   NGY  =192   NGZ  =180)
  gives a total of  91125 points

 initial charge density was supplied:
 charge density of overlapping atoms calculated
 number of electron     688.0000000 magnetization       0.0000000
 keeping initial charge density in first step


--------------------------------------------------------------------------------------------------------


 Maximum index for augmentation-charges          899 (set IRDMAX)


--------------------------------------------------------------------------------------------------------


 First call to EWALD:  gamma=   0.169
 Maximum number of real-space cells 3x 3x 3
 Maximum number of reciprocal cells 3x 3x 3

    FEWALD:  cpu time    0.0021: real time    0.0025


--------------------------------------- Iteration      1(   1)  ---------------------------------------


    POTLOK:  cpu time    0.3268: real time    0.3530
    SETDIJ:  cpu time    0.0142: real time    0.0143
     EDDAV:  cpu time   62.5650: real time   63.2660
 BZINTS: Fermi energy: 16.834353;688.000000 electrons
         Band energy:***********;  BLOECHL correction: -0.002535
       DOS:  cpu time    0.0233: real time    0.0234
    --------------------------------------------
      LOOP:  cpu time   62.9293: real time   63.6567

 eigenvalue-minimisations  : 12288
 total energy-change (2. order) : 0.6192394E+04  (-0.5033792E+05)
 number of electron     688.0000000 magnetization       0.0000000
 augmentation part      688.0000000 magnetization       0.0000000

 Free energy of the ion-electron system (eV)
  ---------------------------------------------------
  alpha Z        PSCENC =      2361.45583753
  Ewald energy   TEWEN  =    -62539.48007980
  -Hartree energ DENC   =    -44273.43023921
  -exchange      EXHF   =         0.00000000
  -V(xc)+E(xc)   XCENC  =      3320.16393784
  PAW double counting   =     94592.23312189   -98164.79192727
  entropy T*S    EENTRO =         0.00000000
  eigenvalues    EBANDS =     -3123.82206708
  atomic energy  EATOM  =    114020.06510763
  Solvation  Ediel_sol  =         0.00000000
  ---------------------------------------------------
  free energy    TOTEN  =      6192.39369152 eV

  energy without entropy =     6192.39369152  energy(sigma->0) =     6192.39369152


--------------------------------------------------------------------------------------------------------




--------------------------------------- Iteration      1(   2)  ---------------------------------------


     EDDAV:  cpu time   65.7002: real time   66.2159
 BZINTS: Fermi energy:  6.696909;688.000000 electrons
         Band energy:***********;  BLOECHL correction:  0.000000
       DOS:  cpu time    0.0029: real time    0.0029
    --------------------------------------------
      LOOP:  cpu time   65.7030: real time   66.2188

 eigenvalue-minimisations  : 12544
 total energy-change (2. order) :-0.6276016E+04  (-0.6144950E+04)
 number of electron     688.0000000 magnetization       0.0000000
 augmentation part      688.0000000 magnetization       0.0000000

 Free energy of the ion-electron system (eV)
  ---------------------------------------------------
  alpha Z        PSCENC =      2361.45583753
  Ewald energy   TEWEN  =    -62539.48007980
  -Hartree energ DENC   =    -44273.43023921
  -exchange      EXHF   =         0.00000000
  -V(xc)+E(xc)   XCENC  =      3320.16393784
  PAW double counting   =     94592.23312189   -98164.79192727
  entropy T*S    EENTRO =         0.00000000
  eigenvalues    EBANDS =     -9399.83786074
  atomic energy  EATOM  =    114020.06510763
  Solvation  Ediel_sol  =         0.00000000
  ---------------------------------------------------
  free energy    TOTEN  =       -83.62210214 eV

  energy without entropy =      -83.62210214  energy(sigma->0) =      -83.62210214


--------------------------------------------------------------------------------------------------------




--------------------------------------- Iteration      1(   3)  ---------------------------------------


     EDDAV:  cpu time  131.5451: real time  132.4480
 BZINTS: Fermi energy:  6.159557;688.000000 electrons
         Band energy:***********;  BLOECHL correction:  0.000000
       DOS:  cpu time    0.0032: real time    0.0032
    --------------------------------------------
      LOOP:  cpu time  131.5483: real time  132.4513

 eigenvalue-minimisations  : 18176
 total energy-change (2. order) :-0.2883032E+03  (-0.2868794E+03)
 number of electron     688.0000000 magnetization       0.0000000
 augmentation part      688.0000000 magnetization       0.0000000

 Free energy of the ion-electron system (eV)
  ---------------------------------------------------
  alpha Z        PSCENC =      2361.45583753
  Ewald energy   TEWEN  =    -62539.48007980
  -Hartree energ DENC   =    -44273.43023921
  -exchange      EXHF   =         0.00000000
  -V(xc)+E(xc)   XCENC  =      3320.16393784
  PAW double counting   =     94592.23312189   -98164.79192727
  entropy T*S    EENTRO =         0.00000000
  eigenvalues    EBANDS =     -9688.14102338
  atomic energy  EATOM  =    114020.06510763
  Solvation  Ediel_sol  =         0.00000000
  ---------------------------------------------------
  free energy    TOTEN  =      -371.92526478 eV

  energy without entropy =     -371.92526478  energy(sigma->0) =     -371.92526478


--------------------------------------------------------------------------------------------------------




--------------------------------------- Iteration      1(   4)  ---------------------------------------


     EDDAV:  cpu time   69.3777: real time   69.9189
 BZINTS: Fermi energy:  6.060724;688.000000 electrons
         Band energy:***********;  BLOECHL correction:  0.000000
       DOS:  cpu time    0.0028: real time    0.0028
    --------------------------------------------
      LOOP:  cpu time   69.3805: real time   69.9217

 eigenvalue-minimisations  : 12800
 total energy-change (2. order) :-0.3968846E+01  (-0.3968628E+01)
 number of electron     688.0000000 magnetization       0.0000000
 augmentation part      688.0000000 magnetization       0.0000000

 Free energy of the ion-electron system (eV)
  ---------------------------------------------------
  alpha Z        PSCENC =      2361.45583753
  Ewald energy   TEWEN  =    -62539.48007980
  -Hartree energ DENC   =    -44273.43023921
  -exchange      EXHF   =         0.00000000
  -V(xc)+E(xc)   XCENC  =      3320.16393784
  PAW double counting   =     94592.23312189   -98164.79192727
  entropy T*S    EENTRO =         0.00000000
  eigenvalues    EBANDS =     -9692.10986964
  atomic energy  EATOM  =    114020.06510763
  Solvation  Ediel_sol  =         0.00000000
  ---------------------------------------------------
  free energy    TOTEN  =      -375.89411104 eV

  energy without entropy =     -375.89411104  energy(sigma->0) =     -375.89411104


--------------------------------------------------------------------------------------------------------




--------------------------------------- Iteration      1(   5)  ---------------------------------------


     EDDAV:  cpu time  132.3726: real time  133.2710
 BZINTS: Fermi energy:  6.027291;688.000000 electrons
         Band energy:***********;  BLOECHL correction:  0.000000
       DOS:  cpu time    0.0028: real time    0.0028
    CHARGE:  cpu time    1.1861: real time    1.1933
    MIXING:  cpu time    0.0043: real time    0.0044
    --------------------------------------------
      LOOP:  cpu time  133.5658: real time  134.4714

 eigenvalue-minimisations  : 17920
 total energy-change (2. order) :-0.1033769E+00  (-0.1033760E+00)
 number of electron     688.0000315 magnetization       0.0000000
 augmentation part      261.0019875 magnetization       0.0000000

 Broyden mixing:
  rms(total) = 0.75074E+01    rms(broyden)= 0.75074E+01
  rms(prec ) = 0.89961E+01
  weight for this iteration     100.00

 Free energy of the ion-electron system (eV)
  ---------------------------------------------------
  alpha Z        PSCENC =      2361.45583753
  Ewald energy   TEWEN  =    -62539.48007980
  -Hartree energ DENC   =    -44273.43023921
  -exchange      EXHF   =         0.00000000
  -V(xc)+E(xc)   XCENC  =      3320.16393784
  PAW double counting   =     94592.23312189   -98164.79192727
  entropy T*S    EENTRO =         0.00000000
  eigenvalues    EBANDS =     -9692.21324650
  atomic energy  EATOM  =    114020.06510763
  Solvation  Ediel_sol  =         0.00000000
  ---------------------------------------------------
  free energy    TOTEN  =      -375.99748790 eV

  energy without entropy =     -375.99748790  energy(sigma->0) =     -375.99748790


--------------------------------------------------------------------------------------------------------




--------------------------------------- Iteration      1(   6)  ---------------------------------------


    POTLOK:  cpu time    0.1177: real time    0.1209
    SETDIJ:  cpu time    0.0128: real time    0.0128
     EDDAV:  cpu time   64.1802: real time   64.6836
 BZINTS: Fermi energy:  4.328668;688.000000 electrons
         Band energy:***********;  BLOECHL correction:  0.000000
       DOS:  cpu time    0.0032: real time    0.0032
    CHARGE:  cpu time    1.1838: real time    1.1905
    MIXING:  cpu time    0.0021: real time    0.0052
    --------------------------------------------
      LOOP:  cpu time   65.4998: real time   66.0163

 eigenvalue-minimisations  : 12288
 total energy-change (2. order) : 0.4148649E+02  (-0.5913054E+02)
 number of electron     688.0000338 magnetization       0.0000000
 augmentation part      296.4017202 magnetization       0.0000000

 Broyden mixing:
  rms(total) = 0.10013E+02    rms(broyden)= 0.10013E+02
  rms(prec ) = 0.10471E+02
  weight for this iteration     100.00

 eigenvalues of (default mixing * dielectric matrix)
  average eigenvalue GAMMA=   0.1689
  0.1689

 Free energy of the ion-electron system (eV)
  ---------------------------------------------------
  alpha Z        PSCENC =      2361.45583753
  Ewald energy   TEWEN  =    -62539.48007980
  -Hartree energ DENC   =    -42314.20509341
  -exchange      EXHF   =         0.00000000
  -V(xc)+E(xc)   XCENC  =      3267.51846197
  PAW double counting   =     96408.99725579   -99767.87625194
  entropy T*S    EENTRO =         0.00000000
  eigenvalues    EBANDS =    -11770.98624014
  atomic energy  EATOM  =    114020.06510763
  Solvation  Ediel_sol  =         0.00000000
  ---------------------------------------------------
  free energy    TOTEN  =      -334.51100237 eV

  energy without entropy =     -334.51100237  energy(sigma->0) =     -334.51100237


--------------------------------------------------------------------------------------------------------




--------------------------------------- Iteration      1(   7)  ---------------------------------------


    POTLOK:  cpu time    0.1189: real time    0.1200
    SETDIJ:  cpu time    0.0125: real time    0.0126
     EDDAV:  cpu time   63.7085: real time   64.2092
 BZINTS: Fermi energy:  4.759372;688.000000 electrons
         Band energy:***********;  BLOECHL correction:  0.000000
       DOS:  cpu time    0.0032: real time    0.0032
    CHARGE:  cpu time    1.2058: real time    1.2130
    MIXING:  cpu time    0.0015: real time    0.0228
    --------------------------------------------
      LOOP:  cpu time   65.0505: real time   65.5808

 eigenvalue-minimisations  : 12288
 total energy-change (2. order) : 0.5234335E+01  (-0.1136613E+02)
 number of electron     688.0000330 magnetization       0.0000000
 augmentation part      286.0337103 magnetization       0.0000000

 Broyden mixing:
  rms(total) = 0.43701E+01    rms(broyden)= 0.43701E+01
  rms(prec ) = 0.44461E+01
  weight for this iteration     100.00

 eigenvalues of (default mixing * dielectric matrix)
  average eigenvalue GAMMA=   0.6164
  0.7661  0.4666

 Free energy of the ion-electron system (eV)
  ---------------------------------------------------
  alpha Z        PSCENC =      2361.45583753
  Ewald energy   TEWEN  =    -62539.48007980
  -Hartree energ DENC   =    -42801.01008714
  -exchange      EXHF   =         0.00000000
  -V(xc)+E(xc)   XCENC  =      3278.98482322
  PAW double counting   =     99830.64094422  -103346.97069789
  entropy T*S    EENTRO =         0.00000000
  eigenvalues    EBANDS =    -11132.96251532
  atomic energy  EATOM  =    114020.06510763
  Solvation  Ediel_sol  =         0.00000000
  ---------------------------------------------------
  free energy    TOTEN  =      -329.27666756 eV

  energy without entropy =     -329.27666756  energy(sigma->0) =     -329.27666756


--------------------------------------------------------------------------------------------------------




--------------------------------------- Iteration      1(   8)  ---------------------------------------


    POTLOK:  cpu time    0.1160: real time    0.1197
    SETDIJ:  cpu time    0.0126: real time    0.0127
     EDDAV:  cpu time   94.8205: real time   95.4988
 BZINTS: Fermi energy:  5.288091;688.000000 electrons
         Band energy:***********;  BLOECHL correction:  0.000000
       DOS:  cpu time    0.0032: real time    0.0032
    CHARGE:  cpu time    1.1861: real time    1.1932
    MIXING:  cpu time    0.0013: real time    0.0014
    --------------------------------------------
      LOOP:  cpu time   96.1396: real time   96.8288

 eigenvalue-minimisations  : 14848
 total energy-change (2. order) :-0.3655357E-01  (-0.3686922E+01)
 number of electron     688.0000326 magnetization       0.0000000
 augmentation part      281.5170237 magnetization       0.0000000

 Broyden mixing:
  rms(total) = 0.32548E+01    rms(broyden)= 0.32548E+01
  rms(prec ) = 0.35303E+01
  weight for this iteration     100.00

 eigenvalues of (default mixing * dielectric matrix)
  average eigenvalue GAMMA=   0.8701
  1.5421  0.6209  0.4471

 Free energy of the ion-electron system (eV)
  ---------------------------------------------------
  alpha Z        PSCENC =      2361.45583753
  Ewald energy   TEWEN  =    -62539.48007980
  -Hartree energ DENC   =    -43059.08722433
  -exchange      EXHF   =         0.00000000
  -V(xc)+E(xc)   XCENC  =      3291.31972461
  PAW double counting   =    105300.78677597  -108916.39608648
  entropy T*S    EENTRO =         0.00000000
  eigenvalues    EBANDS =    -10787.97727627
  atomic energy  EATOM  =    114020.06510763
  Solvation  Ediel_sol  =         0.00000000
  ---------------------------------------------------
  free energy    TOTEN  =      -329.31322114 eV

  energy without entropy =     -329.31322114  energy(sigma->0) =     -329.31322114


--------------------------------------------------------------------------------------------------------




--------------------------------------- Iteration      1(   9)  ---------------------------------------


    POTLOK:  cpu time    0.1207: real time    0.1217
    SETDIJ:  cpu time    0.0126: real time    0.0127
     EDDAV:  cpu time   95.3062: real time   95.9979
 BZINTS: Fermi energy:  4.771463;688.000000 electrons
         Band energy:***********;  BLOECHL correction:  0.000000
       DOS:  cpu time    0.0032: real time    0.0032
    CHARGE:  cpu time    1.1853: real time    1.1926
    MIXING:  cpu time    0.0015: real time    0.0032
    --------------------------------------------
      LOOP:  cpu time   96.6294: real time   97.3312

 eigenvalue-minimisations  : 15360
 total energy-change (2. order) :-0.1782452E+01  (-0.1028632E+02)
 number of electron     688.0000328 magnetization       0.0000000
 augmentation part      282.1316294 magnetization       0.0000000

 Broyden mixing:
  rms(total) = 0.23548E+01    rms(broyden)= 0.23547E+01
  rms(prec ) = 0.28030E+01
  weight for this iteration     100.00

 eigenvalues of (default mixing * dielectric matrix)
  average eigenvalue GAMMA=   0.9795
  2.3914  0.5972  0.5972  0.3323

 Free energy of the ion-electron system (eV)
  ---------------------------------------------------
  alpha Z        PSCENC =      2361.45583753
  Ewald energy   TEWEN  =    -62539.48007980
  -Hartree energ DENC   =    -42845.08513574
  -exchange      EXHF   =         0.00000000
  -V(xc)+E(xc)   XCENC  =      3284.05548233
  PAW double counting   =    109704.20998009  -113356.02409355
  entropy T*S    EENTRO =         0.00000000
  eigenvalues    EBANDS =    -10960.29277169
  atomic energy  EATOM  =    114020.06510763
  Solvation  Ediel_sol  =         0.00000000
  ---------------------------------------------------
  free energy    TOTEN  =      -331.09567320 eV

  energy without entropy =     -331.09567320  energy(sigma->0) =     -331.09567320


--------------------------------------------------------------------------------------------------------




--------------------------------------- Iteration      1(  10)  ---------------------------------------


    POTLOK:  cpu time    0.1204: real time    0.1214
    SETDIJ:  cpu time    0.0128: real time    0.0129
     EDDAV:  cpu time  102.6825: real time  103.4141
 BZINTS: Fermi energy:  4.987391;688.000000 electrons
         Band energy:***********;  BLOECHL correction:  0.000000
       DOS:  cpu time    0.0028: real time    0.0028
    CHARGE:  cpu time    1.1835: real time    1.1903
    MIXING:  cpu time    0.0014: real time    0.0015
    --------------------------------------------
      LOOP:  cpu time  104.0034: real time  104.7429

 eigenvalue-minimisations  : 15872
 total energy-change (2. order) : 0.3677409E+01  (-0.2140370E+01)
 number of electron     688.0000326 magnetization       0.0000000
 augmentation part      282.4043430 magnetization       0.0000000

 Broyden mixing:
  rms(total) = 0.27603E+00    rms(broyden)= 0.27598E+00
  rms(prec ) = 0.30475E+00
  weight for this iteration     100.00

 eigenvalues of (default mixing * dielectric matrix)
  average eigenvalue GAMMA=   0.9217
  2.3577  0.7751  0.5761  0.5761  0.3235

 Free energy of the ion-electron system (eV)
  ---------------------------------------------------
  alpha Z        PSCENC =      2361.45583753
  Ewald energy   TEWEN  =    -62539.48007980
  -Hartree energ DENC   =    -42875.24241566
  -exchange      EXHF   =         0.00000000
  -V(xc)+E(xc)   XCENC  =      3287.35960701
  PAW double counting   =    113264.06189618  -116961.28217560
  entropy T*S    EENTRO =         0.00000000
  eigenvalues    EBANDS =    -10884.35604175
  atomic energy  EATOM  =    114020.06510763
  Solvation  Ediel_sol  =         0.00000000
  ---------------------------------------------------
  free energy    TOTEN  =      -327.41826447 eV

  energy without entropy =     -327.41826447  energy(sigma->0) =     -327.41826447


--------------------------------------------------------------------------------------------------------




--------------------------------------- Iteration      1(  11)  ---------------------------------------


    POTLOK:  cpu time    0.1184: real time    0.1193
    SETDIJ:  cpu time    0.0128: real time    0.0129
     EDDAV:  cpu time  124.4218: real time  125.2805
 BZINTS: Fermi energy:  5.001744;688.000000 electrons
         Band energy:***********;  BLOECHL correction:  0.000000
       DOS:  cpu time    0.0028: real time    0.0028
    CHARGE:  cpu time    1.2075: real time    1.2149
    MIXING:  cpu time    0.0015: real time    0.0015
    --------------------------------------------
      LOOP:  cpu time  125.7646: real time  126.6318

 eigenvalue-minimisations  : 17920
 total energy-change (2. order) :-0.1236285E+00  (-0.1277557E+00)
 number of electron     688.0000325 magnetization       0.0000000
 augmentation part      282.3657283 magnetization       0.0000000

 Broyden mixing:
  rms(total) = 0.35544E+00    rms(broyden)= 0.35542E+00
  rms(prec ) = 0.39175E+00
  weight for this iteration     100.00

 eigenvalues of (default mixing * dielectric matrix)
  average eigenvalue GAMMA=   0.9026
  2.2487  0.7913  0.7301  0.7301  0.5778  0.3373

 Free energy of the ion-electron system (eV)
  ---------------------------------------------------
  alpha Z        PSCENC =      2361.45583753
  Ewald energy   TEWEN  =    -62539.48007980
  -Hartree energ DENC   =    -42893.34184048
  -exchange      EXHF   =         0.00000000
  -V(xc)+E(xc)   XCENC  =      3287.09700868
  PAW double counting   =    113053.26330030  -116750.45938075
  entropy T*S    EENTRO =         0.00000000
  eigenvalues    EBANDS =    -10866.14184605
  atomic energy  EATOM  =    114020.06510763
  Solvation  Ediel_sol  =         0.00000000
  ---------------------------------------------------
  free energy    TOTEN  =      -327.54189294 eV

  energy without entropy =     -327.54189294  energy(sigma->0) =     -327.54189294


--------------------------------------------------------------------------------------------------------




--------------------------------------- Iteration      1(  12)  ---------------------------------------


    POTLOK:  cpu time    0.1211: real time    0.1221
    SETDIJ:  cpu time    0.0126: real time    0.0127
     EDDAV:  cpu time   96.0366: real time   96.7300
 BZINTS: Fermi energy:  4.985863;688.000000 electrons
         Band energy:***********;  BLOECHL correction:  0.000000
       DOS:  cpu time    0.0028: real time    0.0028
    CHARGE:  cpu time    1.1864: real time    1.1934
    MIXING:  cpu time    0.0015: real time    0.0015
    --------------------------------------------
      LOOP:  cpu time   97.3610: real time   98.0626

 eigenvalue-minimisations  : 15104
 total energy-change (2. order) : 0.1047878E-01  (-0.4959884E-01)
 number of electron     688.0000326 magnetization       0.0000000
 augmentation part      282.2543633 magnetization       0.0000000

 Broyden mixing:
  rms(total) = 0.13293E+00    rms(broyden)= 0.13292E+00
  rms(prec ) = 0.14822E+00
  weight for this iteration     100.00

 eigenvalues of (default mixing * dielectric matrix)
  average eigenvalue GAMMA=   0.9435
  2.2728  1.0872  1.0872  0.6221  0.6221  0.5756  0.3370

 Free energy of the ion-electron system (eV)
  ---------------------------------------------------
  alpha Z        PSCENC =      2361.45583753
  Ewald energy   TEWEN  =    -62539.48007980
  -Hartree energ DENC   =    -42892.51300167
  -exchange      EXHF   =         0.00000000
  -V(xc)+E(xc)   XCENC  =      3286.59722030
  PAW double counting   =    112661.24891413  -116355.36198614
  entropy T*S    EENTRO =         0.00000000
  eigenvalues    EBANDS =    -10869.54342613
  atomic energy  EATOM  =    114020.06510763
  Solvation  Ediel_sol  =         0.00000000
  ---------------------------------------------------
  free energy    TOTEN  =      -327.53141416 eV

  energy without entropy =     -327.53141416  energy(sigma->0) =     -327.53141416


--------------------------------------------------------------------------------------------------------




--------------------------------------- Iteration      1(  13)  ---------------------------------------


    POTLOK:  cpu time    0.1203: real time    0.1231
    SETDIJ:  cpu time    0.0135: real time    0.0136
     EDDAV:  cpu time  111.2162: real time  111.9871
 BZINTS: Fermi energy:  4.989111;688.000000 electrons
         Band energy:***********;  BLOECHL correction:  0.000000
       DOS:  cpu time    0.0028: real time    0.0028
    CHARGE:  cpu time    1.1830: real time    1.1901
    MIXING:  cpu time    0.0016: real time    0.0016
    --------------------------------------------
      LOOP:  cpu time  112.5374: real time  113.3182

 eigenvalue-minimisations  : 16128
 total energy-change (2. order) :-0.6465805E-02  (-0.5005387E-02)
 number of electron     688.0000325 magnetization      -0.0000000
 augmentation part      282.2686649 magnetization      -0.0000000

 Broyden mixing:
  rms(total) = 0.90413E-01    rms(broyden)= 0.90412E-01
  rms(prec ) = 0.92692E-01
  weight for this iteration     100.00

 eigenvalues of (default mixing * dielectric matrix)
  average eigenvalue GAMMA=   1.1296
  2.5553  2.5553  0.3370  0.8450  0.8450  0.6620  0.6620  0.5750

 Free energy of the ion-electron system (eV)
  ---------------------------------------------------
  alpha Z        PSCENC =      2361.45583753
  Ewald energy   TEWEN  =    -62539.48007980
  -Hartree energ DENC   =    -42898.30248820
  -exchange      EXHF   =         0.00000000
  -V(xc)+E(xc)   XCENC  =      3286.66565924
  PAW double counting   =    112412.54413918  -116106.52923310
  entropy T*S    EENTRO =         0.00000000
  eigenvalues    EBANDS =    -10863.95682244
  atomic energy  EATOM  =    114020.06510763
  Solvation  Ediel_sol  =         0.00000000
  ---------------------------------------------------
  free energy    TOTEN  =      -327.53787996 eV

  energy without entropy =     -327.53787996  energy(sigma->0) =     -327.53787996


--------------------------------------------------------------------------------------------------------




--------------------------------------- Iteration      1(  14)  ---------------------------------------


    POTLOK:  cpu time    0.1186: real time    0.1214
    SETDIJ:  cpu time    0.0126: real time    0.0127
     EDDAV:  cpu time  105.8688: real time  106.6117
 BZINTS: Fermi energy:  4.992025;688.000000 electrons
         Band energy:***********;  BLOECHL correction:  0.000000
       DOS:  cpu time    0.0028: real time    0.0028
    CHARGE:  cpu time    1.1839: real time    1.1914
    MIXING:  cpu time    0.0017: real time    0.0017
    --------------------------------------------
      LOOP:  cpu time  107.1883: real time  107.9415

 eigenvalue-minimisations  : 15872
 total energy-change (2. order) :-0.1111377E-01  (-0.6204037E-02)
 number of electron     688.0000325 magnetization      -0.0000000
 augmentation part      282.2299972 magnetization      -0.0000000

 Broyden mixing:
  rms(total) = 0.41914E-01    rms(broyden)= 0.41907E-01
  rms(prec ) = 0.47007E-01
  weight for this iteration     100.00

 eigenvalues of (default mixing * dielectric matrix)
  average eigenvalue GAMMA=   1.0548
  2.3887  2.3887  0.9359  0.9359  0.3369  0.6452  0.6452  0.5660  0.6507

 Free energy of the ion-electron system (eV)
  ---------------------------------------------------
  alpha Z        PSCENC =      2361.45583753
  Ewald energy   TEWEN  =    -62539.48007980
  -Hartree energ DENC   =    -42906.87834399
  -exchange      EXHF   =         0.00000000
  -V(xc)+E(xc)   XCENC  =      3286.48352234
  PAW double counting   =    112134.29413880  -115827.68812407
  entropy T*S    EENTRO =         0.00000000
  eigenvalues    EBANDS =    -10855.80105216
  atomic energy  EATOM  =    114020.06510763
  Solvation  Ediel_sol  =         0.00000000
  ---------------------------------------------------
  free energy    TOTEN  =      -327.54899373 eV

  energy without entropy =     -327.54899373  energy(sigma->0) =     -327.54899373


--------------------------------------------------------------------------------------------------------




--------------------------------------- Iteration      1(  15)  ---------------------------------------


    POTLOK:  cpu time    0.1225: real time    0.1234
    SETDIJ:  cpu time    0.0145: real time    0.0145
     EDDAV:  cpu time   91.8002: real time   92.4536
 BZINTS: Fermi energy:  4.990875;688.000000 electrons
         Band energy:***********;  BLOECHL correction:  0.000000
       DOS:  cpu time    0.0028: real time    0.0028
    CHARGE:  cpu time    1.1844: real time    1.1913
    MIXING:  cpu time    0.0018: real time    0.0018
    --------------------------------------------
      LOOP:  cpu time   93.1261: real time   93.7875

 eigenvalue-minimisations  : 14336
 total energy-change (2. order) : 0.2896585E-03  (-0.5670229E-03)
 number of electron     688.0000325 magnetization       0.0000000
 augmentation part      282.2298114 magnetization       0.0000000

 Broyden mixing:
  rms(total) = 0.18052E-01    rms(broyden)= 0.18052E-01
  rms(prec ) = 0.18916E-01
  weight for this iteration     100.00

 eigenvalues of (default mixing * dielectric matrix)
  average eigenvalue GAMMA=   0.9892
  2.3352  2.3352  0.9380  0.9380  0.3369  0.6297  0.6297  0.6332  0.5581  0.5581

 Free energy of the ion-electron system (eV)
  ---------------------------------------------------
  alpha Z        PSCENC =      2361.45583753
  Ewald energy   TEWEN  =    -62539.48007980
  -Hartree energ DENC   =    -42905.57390002
  -exchange      EXHF   =         0.00000000
  -V(xc)+E(xc)   XCENC  =      3286.46254045
  PAW double counting   =    112224.83789887  -115918.50066966
  entropy T*S    EENTRO =         0.00000000
  eigenvalues    EBANDS =    -10856.81543905
  atomic energy  EATOM  =    114020.06510763
  Solvation  Ediel_sol  =         0.00000000
  ---------------------------------------------------
  free energy    TOTEN  =      -327.54870407 eV

  energy without entropy =     -327.54870407  energy(sigma->0) =     -327.54870407


--------------------------------------------------------------------------------------------------------




--------------------------------------- Iteration      1(  16)  ---------------------------------------


    POTLOK:  cpu time    0.1188: real time    0.1198
    SETDIJ:  cpu time    0.0126: real time    0.0126
     EDDAV:  cpu time  126.1559: real time  127.0068
 BZINTS: Fermi energy:  4.990909;688.000000 electrons
         Band energy:***********;  BLOECHL correction:  0.000000
       DOS:  cpu time    0.0028: real time    0.0028
    CHARGE:  cpu time    1.1869: real time    1.1940
    MIXING:  cpu time    0.0020: real time    0.0025
    --------------------------------------------
      LOOP:  cpu time  127.4790: real time  128.3385

 eigenvalue-minimisations  : 16896
 total energy-change (2. order) :-0.1972432E-03  (-0.4851359E-04)
 number of electron     688.0000325 magnetization       0.0000000
 augmentation part      282.2313900 magnetization       0.0000000

 Broyden mixing:
  rms(total) = 0.12965E-01    rms(broyden)= 0.12965E-01
  rms(prec ) = 0.13520E-01
  weight for this iteration     100.00

 eigenvalues of (default mixing * dielectric matrix)
  average eigenvalue GAMMA=   1.1412
  2.5595  2.1169  2.1169  1.2066  0.3369  0.8381  0.8381  0.6647  0.6647  0.5706
  0.6402

 Free energy of the ion-electron system (eV)
  ---------------------------------------------------
  alpha Z        PSCENC =      2361.45583753
  Ewald energy   TEWEN  =    -62539.48007980
  -Hartree energ DENC   =    -42905.78936377
  -exchange      EXHF   =         0.00000000
  -V(xc)+E(xc)   XCENC  =      3286.47866964
  PAW double counting   =    112235.49241893  -115929.08937829
  entropy T*S    EENTRO =         0.00000000
  eigenvalues    EBANDS =    -10856.68211318
  atomic energy  EATOM  =    114020.06510763
  Solvation  Ediel_sol  =         0.00000000
  ---------------------------------------------------
  free energy    TOTEN  =      -327.54890131 eV

  energy without entropy =     -327.54890131  energy(sigma->0) =     -327.54890131


--------------------------------------------------------------------------------------------------------




--------------------------------------- Iteration      1(  17)  ---------------------------------------


    POTLOK:  cpu time    0.1163: real time    0.1213
    SETDIJ:  cpu time    0.0126: real time    0.0127
     EDDAV:  cpu time   98.1009: real time   98.7916
 BZINTS: Fermi energy:  4.991630;688.000000 electrons
         Band energy:***********;  BLOECHL correction:  0.000000
       DOS:  cpu time    0.0028: real time    0.0028
    CHARGE:  cpu time    1.1878: real time    1.1949
    MIXING:  cpu time    0.0034: real time    0.0034
    --------------------------------------------
      LOOP:  cpu time   99.4239: real time  100.1267

 eigenvalue-minimisations  : 14848
 total energy-change (2. order) :-0.6407561E-03  (-0.3001893E-03)
 number of electron     688.0000325 magnetization       0.0000000
 augmentation part      282.2222550 magnetization       0.0000000

 Broyden mixing:
  rms(total) = 0.85738E-02    rms(broyden)= 0.85727E-02
  rms(prec ) = 0.89424E-02
  weight for this iteration     100.00

 eigenvalues of (default mixing * dielectric matrix)
  average eigenvalue GAMMA=   1.1596
  3.3177  2.1382  1.7635  1.3490  0.9229  0.9229  0.3369  0.6530  0.6530  0.5856
  0.6361  0.6361

 Free energy of the ion-electron system (eV)
  ---------------------------------------------------
  alpha Z        PSCENC =      2361.45583753
  Ewald energy   TEWEN  =    -62539.48007980
  -Hartree energ DENC   =    -42907.55135108
  -exchange      EXHF   =         0.00000000
  -V(xc)+E(xc)   XCENC  =      3286.52743655
  PAW double counting   =    112235.60776419  -115929.01410851
  entropy T*S    EENTRO =         0.00000000
  eigenvalues    EBANDS =    -10855.16014857
  atomic energy  EATOM  =    114020.06510763
  Solvation  Ediel_sol  =         0.00000000
  ---------------------------------------------------
  free energy    TOTEN  =      -327.54954207 eV

  energy without entropy =     -327.54954207  energy(sigma->0) =     -327.54954207


--------------------------------------------------------------------------------------------------------




--------------------------------------- Iteration      1(  18)  ---------------------------------------


    POTLOK:  cpu time    0.1269: real time    0.1314
    SETDIJ:  cpu time    0.0131: real time    0.0131
     EDDAV:  cpu time   98.8366: real time   99.5321
 BZINTS: Fermi energy:  4.991541;688.000000 electrons
         Band energy:***********;  BLOECHL correction:  0.000000
       DOS:  cpu time    0.0028: real time    0.0028
    CHARGE:  cpu time    1.1911: real time    1.1981
    MIXING:  cpu time    0.0020: real time    0.0020
    --------------------------------------------
      LOOP:  cpu time  100.1725: real time  100.8796

 eigenvalue-minimisations  : 14848
 total energy-change (2. order) :-0.7055687E-04  (-0.2280179E-04)
 number of electron     688.0000325 magnetization       0.0000000
 augmentation part      282.2294171 magnetization       0.0000000

 Broyden mixing:
  rms(total) = 0.53575E-02    rms(broyden)= 0.53573E-02
  rms(prec ) = 0.62036E-02
  weight for this iteration     100.00

 eigenvalues of (default mixing * dielectric matrix)
  average eigenvalue GAMMA=   1.1467
  3.4815  2.0956  2.0956  1.0677  1.0677  0.3369  0.7496  0.7496  0.7824  0.6571
  0.6571  0.5834  0.5834

 Free energy of the ion-electron system (eV)
  ---------------------------------------------------
  alpha Z        PSCENC =      2361.45583753
  Ewald energy   TEWEN  =    -62539.48007980
  -Hartree energ DENC   =    -42907.41788503
  -exchange      EXHF   =         0.00000000
  -V(xc)+E(xc)   XCENC  =      3286.53439244
  PAW double counting   =    112239.13076743  -115932.49134630
  entropy T*S    EENTRO =         0.00000000
  eigenvalues    EBANDS =    -10855.34640652
  atomic energy  EATOM  =    114020.06510763
  Solvation  Ediel_sol  =         0.00000000
  ---------------------------------------------------
  free energy    TOTEN  =      -327.54961263 eV

  energy without entropy =     -327.54961263  energy(sigma->0) =     -327.54961263


--------------------------------------------------------------------------------------------------------




--------------------------------------- Iteration      1(  19)  ---------------------------------------


    POTLOK:  cpu time    0.1244: real time    0.1255
    SETDIJ:  cpu time    0.0132: real time    0.0133
     EDDAV:  cpu time  125.6208: real time  126.4719
 BZINTS: Fermi energy:  4.991408;688.000000 electrons
         Band energy:***********;  BLOECHL correction:  0.000000
       DOS:  cpu time    0.0028: real time    0.0028
    CHARGE:  cpu time    1.2000: real time    1.2075
    MIXING:  cpu time    0.0020: real time    0.0020
    --------------------------------------------
      LOOP:  cpu time  126.9633: real time  127.8230

 eigenvalue-minimisations  : 17152
 total energy-change (2. order) :-0.4192902E-05  (-0.5695714E-05)
 number of electron     688.0000325 magnetization       0.0000000
 augmentation part      282.2297288 magnetization       0.0000000

 Broyden mixing:
  rms(total) = 0.32938E-02    rms(broyden)= 0.32938E-02
  rms(prec ) = 0.36483E-02
  weight for this iteration     100.00

 eigenvalues of (default mixing * dielectric matrix)
  average eigenvalue GAMMA=   1.1854
  3.5572  2.2869  2.2869  1.1574  1.1574  0.9788  0.9788  0.3369  0.6581  0.6581
[...]
   -.419E+02 0.618E+00 0.227E+02   0.427E+02 -.595E+00 -.229E+02   -.855E+00 -.220E-01 0.213E+00   -.108E-03 -.597E-05 -.717E-05
   -.419E+02 0.618E+00 0.227E+02   0.427E+02 -.595E+00 -.229E+02   -.855E+00 -.220E-01 0.213E+00   -.108E-03 -.597E-05 -.717E-05
   -.419E+02 0.618E+00 0.227E+02   0.427E+02 -.595E+00 -.229E+02   -.855E+00 -.220E-01 0.213E+00   -.108E-03 -.597E-05 -.717E-05
   -.419E+02 0.618E+00 0.227E+02   0.427E+02 -.595E+00 -.229E+02   -.855E+00 -.220E-01 0.213E+00   -.108E-03 -.597E-05 -.717E-05
   0.419E+02 -.618E+00 0.227E+02   -.427E+02 0.595E+00 -.229E+02   0.855E+00 0.220E-01 0.213E+00   0.108E-03 0.597E-05 -.717E-05
   0.419E+02 -.618E+00 0.227E+02   -.427E+02 0.595E+00 -.229E+02   0.855E+00 0.220E-01 0.213E+00   0.108E-03 0.597E-05 -.717E-05
   0.419E+02 -.618E+00 0.227E+02   -.427E+02 0.595E+00 -.229E+02   0.855E+00 0.220E-01 0.213E+00   0.108E-03 0.597E-05 -.717E-05
   0.419E+02 -.618E+00 0.227E+02   -.427E+02 0.595E+00 -.229E+02   0.855E+00 0.220E-01 0.213E+00   0.108E-03 0.597E-05 -.717E-05
   0.618E+00 -.419E+02 0.227E+02   -.595E+00 0.427E+02 -.229E+02   -.220E-01 -.855E+00 0.213E+00   -.597E-05 -.108E-03 -.717E-05
   0.618E+00 -.419E+02 0.227E+02   -.595E+00 0.427E+02 -.229E+02   -.220E-01 -.855E+00 0.213E+00   -.597E-05 -.108E-03 -.717E-05
   0.618E+00 -.419E+02 0.227E+02   -.595E+00 0.427E+02 -.229E+02   -.220E-01 -.855E+00 0.213E+00   -.597E-05 -.108E-03 -.717E-05
   0.618E+00 -.419E+02 0.227E+02   -.595E+00 0.427E+02 -.229E+02   -.220E-01 -.855E+00 0.213E+00   -.597E-05 -.108E-03 -.717E-05
   -.618E+00 0.419E+02 0.227E+02   0.595E+00 -.427E+02 -.229E+02   0.220E-01 0.855E+00 0.213E+00   0.597E-05 0.108E-03 -.717E-05
   -.618E+00 0.419E+02 0.227E+02   0.595E+00 -.427E+02 -.229E+02   0.220E-01 0.855E+00 0.213E+00   0.597E-05 0.108E-03 -.717E-05
   -.618E+00 0.419E+02 0.227E+02   0.595E+00 -.427E+02 -.229E+02   0.220E-01 0.855E+00 0.213E+00   0.597E-05 0.108E-03 -.717E-05
   -.618E+00 0.419E+02 0.227E+02   0.595E+00 -.427E+02 -.229E+02   0.220E-01 0.855E+00 0.213E+00   0.597E-05 0.108E-03 -.717E-05
   -.100E-06 -.359E-07 -.266E+02   0.145E-12 0.000E+00 0.255E+02   -.234E-25 -.775E-25 0.108E+01   -.641E-13 -.401E-13 0.536E-04
   -.100E-06 -.359E-07 -.266E+02   0.145E-12 0.000E+00 0.255E+02   -.275E-25 -.258E-25 0.108E+01   -.308E-12 0.812E-13 0.536E-04
   -.100E-06 -.359E-07 -.266E+02   0.202E-12 0.568E-13 0.255E+02   -.184E-24 -.517E-25 0.108E+01   0.549E-13 -.371E-12 0.536E-04
   -.100E-06 -.359E-07 -.266E+02   0.173E-12 0.000E+00 0.255E+02   -.565E-26 0.775E-25 0.108E+01   -.314E-12 -.333E-12 0.536E-04
   -.359E-07 -.100E-06 -.266E+02   0.000E+00 0.000E+00 0.255E+02   0.867E-25 -.323E-25 0.108E+01   -.590E-12 0.676E-13 0.536E-04
   -.359E-07 -.100E-06 -.266E+02   0.000E+00 0.000E+00 0.255E+02   0.222E-25 -.452E-25 0.108E+01   0.327E-13 0.219E-12 0.536E-04
   -.359E-07 -.100E-06 -.266E+02   0.284E-13 -.568E-13 0.255E+02   0.828E-26 0.226E-25 0.108E+01   -.447E-12 -.159E-12 0.536E-04
   -.359E-07 -.100E-06 -.266E+02   -.284E-13 -.568E-13 0.255E+02   0.132E-24 -.634E-25 0.108E+01   -.203E-12 -.297E-12 0.536E-04
   -.100E-06 -.360E-07 -.266E+02   0.156E-12 -.977E-14 0.255E+02   -.194E-25 0.000E+00 0.108E+01   -.459E-12 -.280E-12 0.536E-04
   -.100E-06 -.360E-07 -.266E+02   0.213E-12 -.666E-13 0.255E+02   0.113E-25 0.129E-24 0.108E+01   -.193E-13 -.386E-12 0.536E-04
   -.100E-06 -.359E-07 -.266E+02   0.142E-12 -.711E-14 0.255E+02   0.323E-26 0.258E-25 0.108E+01   -.424E-12 -.202E-12 0.536E-04
   -.100E-06 -.359E-07 -.266E+02   0.199E-12 -.711E-14 0.255E+02   -.162E-26 -.258E-25 0.108E+01   0.243E-13 0.471E-13 0.536E-04
   -.359E-07 -.100E-06 -.266E+02   -.269E-15 -.639E-13 0.255E+02   -.114E-24 0.103E-24 0.108E+01   -.470E-13 -.275E-12 0.536E-04
   -.359E-07 -.100E-06 -.266E+02   0.309E-13 -.121E-12 0.255E+02   -.222E-26 -.291E-25 0.108E+01   -.437E-12 -.132E-12 0.536E-04
   -.359E-07 -.100E-06 -.266E+02   -.364E-15 -.423E-14 0.255E+02   0.218E-25 0.000E+00 0.108E+01   -.501E-13 0.386E-13 0.536E-04
   -.359E-07 -.100E-06 -.266E+02   0.238E-14 -.118E-12 0.255E+02   -.889E-25 0.258E-25 0.108E+01   -.433E-12 -.128E-12 0.536E-04
   -.228E-08 -.185E-07 -.215E+02   -.119E-12 0.497E-13 0.203E+02   0.178E-25 0.103E-24 0.127E+01   -.142E-12 0.131E-12 0.148E-04
   -.227E-08 -.185E-07 -.215E+02   -.105E-12 0.568E-13 0.203E+02   0.695E-25 0.103E-24 0.127E+01   -.328E-12 0.146E-12 0.148E-04
   -.228E-08 -.185E-07 -.215E+02   -.123E-12 0.110E-12 0.203E+02   -.654E-25 0.388E-25 0.127E+01   0.103E-13 -.120E-12 0.148E-04
   -.227E-08 -.185E-07 -.215E+02   -.799E-13 0.142E-12 0.203E+02   -.145E-24 0.258E-25 0.127E+01   -.429E-12 -.722E-13 0.148E-04
   -.185E-07 -.227E-08 -.215E+02   -.146E-12 -.533E-13 0.203E+02   0.170E-25 0.517E-25 0.127E+01   -.427E-12 0.393E-13 0.148E-04
   -.185E-07 -.227E-08 -.215E+02   -.121E-12 -.462E-13 0.203E+02   -.897E-25 -.646E-25 0.127E+01   0.117E-12 0.815E-13 0.148E-04
   -.185E-07 -.228E-08 -.215E+02   -.853E-13 -.135E-12 0.203E+02   -.638E-25 -.517E-25 0.127E+01   -.327E-12 -.130E-12 0.148E-04
   -.185E-07 -.227E-08 -.215E+02   -.117E-12 -.107E-12 0.203E+02   0.840E-25 0.258E-25 0.127E+01   0.139E-13 -.171E-12 0.148E-04
   -.228E-08 -.185E-07 -.215E+02   -.533E-13 0.959E-13 0.203E+02   -.622E-25 0.517E-25 0.127E+01   -.441E-12 -.880E-13 0.148E-04
   -.227E-08 -.185E-07 -.215E+02   -.817E-13 0.150E-12 0.203E+02   -.190E-25 0.388E-25 0.127E+01   -.216E-13 -.918E-13 0.148E-04
   -.228E-08 -.185E-07 -.215E+02   -.128E-12 0.897E-13 0.203E+02   0.118E-24 0.103E-24 0.127E+01   -.490E-12 0.149E-13 0.148E-04
   -.227E-08 -.184E-07 -.215E+02   -.114E-12 0.906E-13 0.203E+02   -.242E-26 -.969E-25 0.127E+01   0.590E-13 0.141E-12 0.148E-04
   -.185E-07 -.227E-08 -.215E+02   -.101E-12 -.945E-13 0.203E+02   -.143E-24 -.258E-25 0.127E+01   -.208E-13 -.287E-12 0.148E-04
   -.185E-07 -.227E-08 -.215E+02   -.134E-12 -.100E-12 0.203E+02   -.149E-24 0.103E-24 0.127E+01   -.247E-12 -.145E-12 0.148E-04
   -.185E-07 -.227E-08 -.215E+02   -.832E-13 -.153E-13 0.203E+02   -.565E-25 0.258E-25 0.127E+01   0.395E-13 0.174E-12 0.148E-04
   -.185E-07 -.226E-08 -.215E+02   -.116E-12 -.140E-13 0.203E+02   -.323E-26 0.517E-25 0.127E+01   -.317E-12 -.284E-13 0.148E-04
 -----------------------------------------------------------------------------------------------
   -.920E-06 -.920E-06 -.444E+02   -.202E-12 0.661E-12 -.298E-12   -.982E-15 -.111E-15 0.445E+02   -.466E-11 -.567E-12 0.867E-03
 
 
 POSITION                                       TOTAL-FORCE (eV/Angst)
 -----------------------------------------------------------------------------------
      1.37214      1.36530      1.26179         0.003036     -0.001314     -0.008910
      6.62171      1.55777      1.26179         0.003036     -0.001314     -0.008910
      1.56461      6.61486      1.26179         0.003036     -0.001314     -0.008910
      6.81418      6.80733      1.26179         0.003036     -0.001314     -0.008910
      4.06989      4.07674      1.26179        -0.003036      0.001314     -0.008910
      9.31945      4.26921      1.26179        -0.003036      0.001314     -0.008910
      4.26236      9.32630      1.26179        -0.003036      0.001314     -0.008910
      9.51192      9.51877      1.26179        -0.003036      0.001314     -0.008910
      1.45196      3.97365      9.08370         0.001314     -0.003036     -0.008910
      6.70152      4.16612      9.08370         0.001314     -0.003036     -0.008910
      1.64443      9.22322      9.08370         0.001314     -0.003036     -0.008910
      6.89399      9.41569      9.08370         0.001314     -0.003036     -0.008910
      3.99008      1.46838      9.08370        -0.001314      0.003036     -0.008910
      9.23964      1.66085      9.08370        -0.001314      0.003036     -0.008910
      4.18255      6.71794      9.08370        -0.001314      0.003036     -0.008910
      9.43211      6.91041      9.08370        -0.001314      0.003036     -0.008910
      1.34887      1.35572      6.47640        -0.003036      0.001314     -0.008910
      6.59844      1.54819      6.47640        -0.003036      0.001314     -0.008910
      1.54134      6.60528      6.47640        -0.003036      0.001314     -0.008910
      6.79091      6.79775      6.47640        -0.003036      0.001314     -0.008910
      4.09316      4.08631      6.47640         0.003036     -0.001314     -0.008910
      9.34273      4.27878      6.47640         0.003036     -0.001314     -0.008910
      4.28563      9.33588      6.47640         0.003036     -0.001314     -0.008910
      9.53520      9.52835      6.47640         0.003036     -0.001314     -0.008910
      3.98050      1.44511      3.86909         0.001314     -0.003036     -0.008910
      9.23007      1.63758      3.86909         0.001314     -0.003036     -0.008910
      4.17297      6.69467      3.86909         0.001314     -0.003036     -0.008910
      9.42254      6.88714      3.86909         0.001314     -0.003036     -0.008910
      1.46153      3.99693      3.86909        -0.001314      0.003036     -0.008910
      6.71110      4.18940      3.86909        -0.001314      0.003036     -0.008910
      1.65400      9.24649      3.86909        -0.001314      0.003036     -0.008910
      6.90357      9.43896      3.86909        -0.001314      0.003036     -0.008910
      0.00000      0.00000      5.25092         0.000000      0.000000      0.006575
      5.24956      0.19247      5.25092         0.000000      0.000000      0.006575
      0.19247      5.24956      5.25092         0.000000      0.000000      0.006575
      5.44203      5.44203      5.25092         0.000000      0.000000      0.006575
      2.62478      0.09624      2.64362         0.000000      0.000000      0.006575
      7.87435      0.28870      2.64362         0.000000      0.000000      0.006575
      2.81725      5.34580      2.64362         0.000000      0.000000      0.006575
      8.06682      5.53827      2.64362         0.000000      0.000000      0.006575
      2.72102      2.72102      0.03631         0.000000      0.000000      0.006575
      7.97058      2.91349      0.03631         0.000000      0.000000      0.006575
      2.91349      7.97058      0.03631         0.000000      0.000000      0.006575
      8.16305      8.16305      0.03631         0.000000      0.000000      0.006575
      0.09624      2.62478      7.85822         0.000000      0.000000      0.006575
      5.34580      2.81725      7.85822         0.000000      0.000000      0.006575
      0.28870      7.87435      7.85822         0.000000      0.000000      0.006575
      5.53827      8.06682      7.85822         0.000000      0.000000      0.006575
      0.00000      0.00000      0.04742         0.000000      0.000000      0.011246
      5.24956      0.19247      0.04742         0.000000      0.000000      0.011246
      0.19247      5.24956      0.04742         0.000000      0.000000      0.011246
      5.44203      5.44203      0.04742         0.000000      0.000000      0.011246
      2.62478      0.09624      7.86933         0.000000      0.000000      0.011246
      7.87435      0.28870      7.86933         0.000000      0.000000      0.011246
      2.81725      5.34580      7.86933         0.000000      0.000000      0.011246
      8.06682      5.53827      7.86933         0.000000      0.000000      0.011246
      2.72102      2.72102      5.26203         0.000000      0.000000      0.011246
      7.97058      2.91349      5.26203         0.000000      0.000000      0.011246
      2.91349      7.97058      5.26203         0.000000      0.000000      0.011246
      8.16305      8.16305      5.26203         0.000000      0.000000      0.011246
      0.09624      2.62478      2.65472         0.000000      0.000000      0.011246
      5.34580      2.81725      2.65472         0.000000      0.000000      0.011246
      0.28870      7.87435      2.65472         0.000000      0.000000      0.011246
      5.53827      8.06682      2.65472         0.000000      0.000000      0.011246
 -----------------------------------------------------------------------------------
    total drift:                               -0.000001     -0.000001      0.027006


--------------------------------------------------------------------------------------------------------



  FREE ENERGIE OF THE ION-ELECTRON SYSTEM (eV)
  ---------------------------------------------------
  free  energy   TOTEN  =      -327.54962372 eV

  energy  without entropy=     -327.54962372  energy(sigma->0) =     -327.54962372
 


--------------------------------------------------------------------------------------------------------


    POTLOK:  cpu time    0.1313: real time    0.1319


--------------------------------------------------------------------------------------------------------


 writing wavefunctions
     LOOP+:  cpu time 2736.1601: real time 2756.0273
    4ORBIT:  cpu time    0.0000: real time    0.0000
 


 total charge     
 
# of ion       s       p       d       tot
------------------------------------------
    1        1.314   2.409   0.000   3.723
    2        1.314   2.409   0.000   3.723
    3        1.314   2.409   0.000   3.723
    4        1.314   2.409   0.000   3.723
    5        1.314   2.409   0.000   3.723
    6        1.314   2.409   0.000   3.723
    7        1.314   2.409   0.000   3.723
    8        1.314   2.409   0.000   3.723
    9        1.314   2.409   0.000   3.723
   10        1.314   2.409   0.000   3.723
   11        1.314   2.409   0.000   3.723
   12        1.314   2.409   0.000   3.723
   13        1.314   2.409   0.000   3.723
   14        1.314   2.409   0.000   3.723
   15        1.314   2.409   0.000   3.723
   16        1.314   2.409   0.000   3.723
   17        1.314   2.409   0.000   3.723
   18        1.314   2.409   0.000   3.723
   19        1.314   2.409   0.000   3.723
   20        1.314   2.409   0.000   3.723
   21        1.314   2.409   0.000   3.723
   22        1.314   2.409   0.000   3.723
   23        1.314   2.409   0.000   3.723
   24        1.314   2.409   0.000   3.723
   25        1.314   2.409   0.000   3.723
   26        1.314   2.409   0.000   3.723
   27        1.314   2.409   0.000   3.723
   28        1.314   2.409   0.000   3.723
   29        1.314   2.409   0.000   3.723
   30        1.314   2.409   0.000   3.723
   31        1.314   2.409   0.000   3.723
   32        1.314   2.409   0.000   3.723
   33        0.259   6.202   8.916  15.377
   34        0.259   6.202   8.916  15.377
   35        0.259   6.202   8.916  15.377
   36        0.259   6.202   8.916  15.377
   37        0.259   6.202   8.917  15.377
   38        0.259   6.202   8.917  15.377
   39        0.259   6.202   8.917  15.377
   40        0.259   6.202   8.917  15.377
   41        0.259   6.202   8.916  15.377
   42        0.259   6.202   8.916  15.377
   43        0.259   6.202   8.916  15.377
   44        0.259   6.202   8.916  15.377
   45        0.259   6.202   8.917  15.377
   46        0.259   6.202   8.917  15.377
   47        0.259   6.202   8.917  15.377
   48        0.259   6.202   8.917  15.377
   49        0.349   6.349   5.821  12.519
   50        0.349   6.349   5.821  12.519
   51        0.349   6.349   5.821  12.519
   52        0.349   6.349   5.821  12.519
   53        0.349   6.349   5.821  12.520
   54        0.349   6.349   5.821  12.520
   55        0.349   6.349   5.821  12.520
   56        0.349   6.349   5.821  12.520
   57        0.349   6.349   5.821  12.519
   58        0.349   6.349   5.821  12.519
   59        0.349   6.349   5.821  12.519
   60        0.349   6.349   5.821  12.519
   61        0.349   6.349   5.821  12.520
   62        0.349   6.349   5.821  12.520
   63        0.349   6.349   5.821  12.520
   64        0.349   6.349   5.821  12.520
--------------------------------------------------
tot         51.779 277.895 235.803 565.478
 


 magnetization (x)
 
# of ion       s       p       d       tot
------------------------------------------
    1       -0.001  -0.018   0.000  -0.019
    2       -0.001  -0.018   0.000  -0.019
    3       -0.001  -0.018   0.000  -0.019
    4       -0.001  -0.018   0.000  -0.019
    5       -0.001  -0.018   0.000  -0.019
    6       -0.001  -0.018   0.000  -0.019
    7       -0.001  -0.018   0.000  -0.019
    8       -0.001  -0.018   0.000  -0.019
    9        0.001   0.018   0.000   0.019
   10        0.001   0.018   0.000   0.019
   11        0.001   0.018   0.000   0.019
   12        0.001   0.018   0.000   0.019
   13        0.001   0.018   0.000   0.019
   14        0.001   0.018   0.000   0.019
   15        0.001   0.018   0.000   0.019
   16        0.001   0.018   0.000   0.019
   17       -0.001  -0.018   0.000  -0.019
   18       -0.001  -0.018   0.000  -0.019
   19       -0.001  -0.018   0.000  -0.019
   20       -0.001  -0.018   0.000  -0.019
   21       -0.001  -0.018   0.000  -0.019
   22       -0.001  -0.018   0.000  -0.019
   23       -0.001  -0.018   0.000  -0.019
   24       -0.001  -0.018   0.000  -0.019
   25        0.001   0.018   0.000   0.019
   26        0.001   0.018   0.000   0.019
   27        0.001   0.018   0.000   0.019
   28        0.001   0.018   0.000   0.019
   29        0.001   0.018   0.000   0.019
   30        0.001   0.018   0.000   0.019
   31        0.001   0.018   0.000   0.019
   32        0.001   0.018   0.000   0.019
   33        0.000   0.000   0.001   0.001
   34        0.000   0.000   0.001   0.001
   35        0.000   0.000   0.001   0.001
   36        0.000   0.000   0.001   0.001
   37       -0.000  -0.000  -0.001  -0.002
   38       -0.000  -0.000  -0.001  -0.002
   39       -0.000  -0.000  -0.001  -0.002
   40       -0.000  -0.000  -0.001  -0.002
   41        0.000   0.000   0.001   0.001
   42        0.000   0.000   0.001   0.001
   43        0.000   0.000   0.001   0.001
   44        0.000   0.000   0.001   0.001
   45       -0.000  -0.000  -0.001  -0.002
   46       -0.000  -0.000  -0.001  -0.002
   47       -0.000  -0.000  -0.001  -0.002
   48       -0.000  -0.000  -0.001  -0.002
   49        0.020   0.053   3.669   3.742
   50        0.020   0.053   3.669   3.742
   51        0.020   0.053   3.669   3.742
   52        0.020   0.053   3.669   3.742
   53       -0.020  -0.053  -3.669  -3.742
   54       -0.020  -0.053  -3.669  -3.742
   55       -0.020  -0.053  -3.669  -3.742
   56       -0.020  -0.053  -3.669  -3.742
   57        0.020   0.053   3.669   3.742
   58        0.020   0.053   3.669   3.742
   59        0.020   0.053   3.669   3.742
   60        0.020   0.053   3.669   3.742
   61       -0.020  -0.053  -3.669  -3.742
   62       -0.020  -0.053  -3.669  -3.742
   63       -0.020  -0.053  -3.669  -3.742
   64       -0.020  -0.053  -3.669  -3.742
--------------------------------------------------
tot         -0.002   0.002  -0.001  -0.001
 
 BZINTS: Fermi energy:  4.991123;688.000000 electrons
         Band energy:***********;  BLOECHL correction:  0.000000

 total amount of memory used by VASP MPI-rank0   300225. kBytes
=======================================================================

   base      :      30000. kBytes
   nonl-proj :     174956. kBytes
   fftplans  :       4588. kBytes
   grid      :      69719. kBytes
   one-center:       1990. kBytes
   wavefun   :      18972. kBytes
 
  
  
 General timing and accounting informations for this job:
 ========================================================
  
                  Total CPU time used (sec):     2779.856
                            User time (sec):     2769.689
                          System time (sec):       10.167
                         Elapsed time (sec):     2801.286
  
                   Maximum memory used (kb):      663048.
                   Average memory used (kb):           0.
  
                          Minor page faults:       561810
                          Major page faults:         5715
                 Voluntary context switches:         7141
