       N       E                     dE             d eps       ncg     rms          rms(c)
DAV:   1     0.603882385576E+04    0.60388E+04   -0.51708E+05 16384   0.197E+03
DAV:   2    -0.861377691090E+02   -0.61250E+04   -0.60162E+04 17920   0.446E+02
DAV:   3    -0.333811566975E+03   -0.24767E+03   -0.24680E+03 23040   0.974E+01
DAV:   4    -0.337191490682E+03   -0.33799E+01   -0.33798E+01 19456   0.115E+01
DAV:   5    -0.337294696207E+03   -0.10321E+00   -0.10321E+00 21504   0.197E+00    0.251E+01
DAV:   6    -0.329481625156E+03    0.78131E+01   -0.10419E+01 28160   0.116E+01    0.141E+01
DAV:   7    -0.327512231817E+03    0.19694E+01   -0.77871E+00 19200   0.869E+00    0.975E+00
DAV:   8    -0.327089354917E+03    0.42288E+00   -0.83581E+00 25600   0.797E+00    0.863E+00
DAV:   9    -0.326807701860E+03    0.28165E+00   -0.33475E+00 21248   0.479E+00    0.309E+00
DAV:  10    -0.326809634559E+03   -0.19327E-02   -0.15999E-01 24064   0.119E+00    0.157E+00
DAV:  11    -0.326815738664E+03   -0.61041E-02   -0.56659E-02 23552   0.566E-01    0.713E-01
DAV:  12    -0.326821077378E+03   -0.53387E-02   -0.19443E-02 20480   0.222E-01    0.257E-01
DAV:  13    -0.326821811169E+03   -0.73379E-03   -0.22022E-03 19968   0.837E-02    0.163E-01
DAV:  14    -0.326822286499E+03   -0.47533E-03   -0.12562E-03 23040   0.454E-02    0.825E-02
DAV:  15    -0.326822511099E+03   -0.22460E-03   -0.56117E-04 19200   0.250E-02    0.410E-02
DAV:  16    -0.326822580792E+03   -0.69693E-04   -0.17024E-04 22272   0.155E-02    0.268E-02
DAV:  17    -0.326822624945E+03   -0.44153E-04   -0.18700E-04 20992   0.141E-02    0.154E-02
DAV:  18    -0.326822636272E+03   -0.11327E-04   -0.80817E-05 20992   0.959E-03    0.647E-03
DAV:  19    -0.326822637354E+03   -0.10819E-05   -0.52983E-06 20480   0.299E-03    0.544E-03
DAV:  20    -0.326822637819E+03   -0.46483E-06   -0.25749E-06 24064   0.188E-03    0.222E-03
DAV:  21    -0.326822637997E+03   -0.17816E-06   -0.77144E-07 21504   0.107E-03    0.144E-03
DAV:  22    -0.326822638070E+03   -0.73356E-07   -0.12656E-07 27648   0.397E-04    0.843E-04
DAV:  23    -0.326822638105E+03   -0.34779E-07   -0.35773E-08 14848   0.208E-04    0.340E-04
DAV:  24    -0.326822638123E+03   -0.17506E-07   -0.35410E-08 15616   0.196E-04    0.277E-04
DAV:  25    -0.326822638124E+03   -0.94587E-09   -0.62800E-09 10752   0.105E-04
   1 F= -.32682264E+03 E0= -.32682264E+03  d E =0.000000E+00  mag=     0.0000
