 vasp.5.4.4.18Apr17-6-g9f103f2a35 (build Oct 30 2023 17:30:16) complex          
  
 executed on             LinuxIFC date 2024.06.30  04:52:08
 running on  256 total cores
 distrk:  each k-point on  256 cores,    1 groups
 distr:  one band on NCORES_PER_BAND=   1 cores,  256 groups


--------------------------------------------------------------------------------------------------------


 INCAR:
 POTCAR:    PAW_PBE S 06Sep2000                   
 POTCAR:     PAW_PBE Cu_pv 06Sep2000              
 POTCAR:     PAW_PBE Fe_pv 02Aug2007              

 ----------------------------------------------------------------------------- 
|                                                                             |
|           W    W    AA    RRRRR   N    N  II  N    N   GGGG   !!!           |
|           W    W   A  A   R    R  NN   N  II  NN   N  G    G  !!!           |
|           W    W  A    A  R    R  N N  N  II  N N  N  G       !!!           |
|           W WW W  AAAAAA  RRRRR   N  N N  II  N  N N  G  GGG   !            |
|           WW  WW  A    A  R   R   N   NN  II  N   NN  G    G                |
|           W    W  A    A  R    R  N    N  II  N    N   GGGG   !!!           |
|                                                                             |
|      For optimal performance we recommend to set                            |
|        NCORE= 4 - approx SQRT( number of cores)                             |
|      NCORE specifies how many cores store one orbital (NPAR=cpu/NCORE).     |
|      This setting can  greatly improve the performance of VASP for DFT.     |
|      The default,   NCORE=1            might be grossly inefficient         |
|      on modern multi-core architectures or massively parallel machines.     |
|      Do your own testing !!!!                                               |
|      Unfortunately you need to use the default for GW and RPA calculations. |
|      (for HF NCORE is supported but not extensively tested yet)             |
|                                                                             |
 ----------------------------------------------------------------------------- 

 POTCAR:    PAW_PBE S 06Sep2000                   
   SHA256 =  0fc7481fb0695f01bdc6462160264c5c84044ae9ec85a907d398b887a2bc3132 S/
   COPYR  = (c) Copyright 06Sep2000 Georg Kresse                                
   COPYR  = This file is part of the software VASP. Any use, copying, and all ot
   COPYR  = If you do not have a valid VASP license, you may not use, copy or di
   VRHFIN =S : s2p4                                                             
   LEXCH  = PE                                                                  
   EATOM  =   276.8230 eV,   20.3459 Ry                                         
                                                                                
   TITEL  = PAW_PBE S 06Sep2000                                                 
   LULTRA =        F    use ultrasoft PP ?                                      
   IUNSCR =        1    unscreen: 0-lin 1-nonlin 2-no                           
   RPACOR =    1.500    partial core radius                                     
   POMASS =   32.066; ZVAL   =    6.000    mass and valenz                      
   RCORE  =    1.900    outmost cutoff radius                                   
   RWIGS  =    2.200; RWIGS  =    1.164    wigner-seitz radius (au A)           
   ENMAX  =  258.689; ENMIN  =  194.016 eV                                      
   ICORE  =        2    local potential                                         
   LCOR   =        T    correct aug charges                                     
   LPAW   =        T    paw PP                                                  
   EAUG   =  335.092                                                            
   DEXC   =    0.000                                                            
   RMAX   =    1.942    core radius for proj-oper                               
   RAUG   =    1.300    factor for augmentation sphere                          
   RDEP   =    1.954    radius for radial grids                                 
   RDEPT  =    1.744    core radius for aug-charge                              
                                                                                
   Atomic configuration                                                         
    6 entries                                                                   
     n  l   j            E        occ.                                          
     1  0  0.50     -2405.8406   2.0000                                         
     2  0  0.50      -211.7007   2.0000                                         
     2  1  1.50      -156.4958   6.0000                                         
     3  0  0.50       -17.2562   2.0000                                         
     3  1  0.50        -7.0085   4.0000                                         
     3  2  1.50        -6.8029   0.0000                                         
   Description                                                                  
     l       E           TYP  RCUT    TYP  RCUT                                 
     0    -17.2561641     23  1.900                                             
     0    -15.8743224     23  1.900                                             
     1     -7.0085400     23  1.900                                             
     1     -2.7779785     23  1.900                                             
     2     -6.8029130     23  1.900                                             
  local pseudopotential read in
  partial core-charges read in
  partial kinetic energy density read in
  atomic valenz-charges read in
  non local Contribution for L=           0  read in
    real space projection operators read in
  non local Contribution for L=           0  read in
    real space projection operators read in
  non local Contribution for L=           1  read in
    real space projection operators read in
  non local Contribution for L=           1  read in
    real space projection operators read in
    PAW grid and wavefunctions read in
 
   number of l-projection  operators is LMAX  =           4
   number of lm-projection operators is LMMAX =           8
 
 POTCAR:     PAW_PBE Cu_pv 06Sep2000              
   SHA256 =  cb7b504e2ea725fe1f25c85a9ac77d4012ce94cd394135b722c4e25ec297f1cb Cu
   COPYR  = (c) Copyright 06Sep2000 Georg Kresse                                
   COPYR  = This file is part of the software VASP. Any use, copying, and all ot
   COPYR  = If you do not have a valid VASP license, you may not use, copy or di
   VRHFIN =Cu: d10 p1                                                           
   LEXCH  = PE                                                                  
   EATOM  =  4120.1201 eV,  302.8203 Ry                                         
                                                                                
   TITEL  = PAW_PBE Cu_pv 06Sep2000                                             
   LULTRA =        F    use ultrasoft PP ?                                      
   IUNSCR =        1    unscreen: 0-lin 1-nonlin 2-no                           
   RPACOR =    1.500    partial core radius                                     
   POMASS =   63.546; ZVAL   =   17.000    mass and valenz                      
   RCORE  =    2.000    outmost cutoff radius                                   
   RWIGS  =    2.000; RWIGS  =    1.058    wigner-seitz radius (au A)           
   ENMAX  =  368.648; ENMIN  =  276.486 eV                                      
   RCLOC  =    1.304    cutoff for local pot                                    
   LCOR   =        T    correct aug charges                                     
   LPAW   =        T    paw PP                                                  
   EAUG   =  758.233                                                            
   DEXC   =    0.000                                                            
   RMAX   =    2.046    core radius for proj-oper                               
   RAUG   =    1.300    factor for augmentation sphere                          
   RDEP   =    2.025    radius for radial grids                                 
   RDEPT  =    1.558    core radius for aug-charge                              
                                                                                
   Atomic configuration                                                         
    8 entries                                                                   
     n  l   j            E        occ.                                          
     1  0  0.50     -8850.2467   2.0000                                         
     2  0  0.50     -1062.3498   2.0000                                         
     2  1  1.50      -916.8226   6.0000                                         
     3  0  0.50      -114.6929   2.0000                                         
     3  1  1.50       -72.1325   6.0000                                         
     3  2  2.50        -5.0394  10.0000                                         
     4  0  0.50        -4.6097   1.0000                                         
     4  3  2.50        -1.3606   0.0000                                         
   Description                                                                  
     l       E           TYP  RCUT    TYP  RCUT                                 
     1    -72.1324777     23  1.700                                             
     1     -1.3605826     23  1.700                                             
     2     -5.0393776     23  2.000                                             
     2     -6.3999602     23  2.000                                             
     0     -4.6097062     23  1.800                                             
     0     14.1620818     23  1.800                                             
  local pseudopotential read in
  partial core-charges read in
  partial kinetic energy density read in
  atomic valenz-charges read in
  non local Contribution for L=           1  read in
    real space projection operators read in
  non local Contribution for L=           1  read in
    real space projection operators read in
  non local Contribution for L=           2  read in
    real space projection operators read in
  non local Contribution for L=           2  read in
    real space projection operators read in
  non local Contribution for L=           0  read in
    real space projection operators read in
  non local Contribution for L=           0  read in
    real space projection operators read in
    PAW grid and wavefunctions read in
 
   number of l-projection  operators is LMAX  =           6
   number of lm-projection operators is LMMAX =          18
 
 POTCAR:     PAW_PBE Fe_pv 02Aug2007              
   SHA256 =  5d22e414b1f82158bf2c7ecb8b97b28fd0923e48cadc1c3bf74d524558f5dd32 Fe
   COPYR  = (c) Copyright 02Aug2007 Georg Kresse                                
   COPYR  = This file is part of the software VASP. Any use, copying, and all ot
   COPYR  = If you do not have a valid VASP license, you may not use, copy or di
   VRHFIN =Fe:  3pd7s1                                                          
   LEXCH  = PE                                                                  
   EATOM  =  2457.4239 eV,  180.6156 Ry                                         
                                                                                
   TITEL  = PAW_PBE Fe_pv 02Aug2007                                             
   LULTRA =        F    use ultrasoft PP ?                                      
   IUNSCR =        1    unscreen: 0-lin 1-nonlin 2-no                           
   RPACOR =    1.750    partial core radius                                     
   POMASS =   55.847; ZVAL   =   14.000    mass and valenz                      
   RCORE  =    2.200    outmost cutoff radius                                   
   RWIGS  =    2.200; RWIGS  =    1.164    wigner-seitz radius (au A)           
   ENMAX  =  293.238; ENMIN  =  219.928 eV                                      
   ICORE  =        3    local potential                                         
   LCOR   =        T    correct aug charges                                     
   LPAW   =        T    paw PP                                                  
   EAUG   =  578.342                                                            
   DEXC   =    0.000                                                            
   RMAX   =    2.249    core radius for proj-oper                               
   RAUG   =    1.300    factor for augmentation sphere                          
   RDEP   =    2.296    radius for radial grids                                 
   RDEPT  =    1.766    core radius for aug-charge                              
                                                                                
   Atomic configuration                                                         
    8 entries                                                                   
     n  l   j            E        occ.                                          
     1  0  0.50     -6993.8440   2.0000                                         
     2  0  0.50      -814.6047   2.0000                                         
     2  1  1.50      -693.3689   6.0000                                         
     3  0  0.50       -89.4732   2.0000                                         
     3  1  1.50       -55.6373   6.0000                                         
     3  2  2.50        -3.8151   7.0000                                         
     4  0  0.50        -4.2551   1.0000                                         
     4  3  2.50        -1.3606   0.0000                                         
   Description                                                                  
     l       E           TYP  RCUT    TYP  RCUT                                 
     1    -55.6372668     23  2.000                                             
     1     -5.4423304     23  2.000                                             
     2     -3.8151096     23  2.200                                             
     2     -5.1756922     23  2.200                                             
     0     -4.2550951     23  2.200                                             
     0     27.2116520     23  2.200                                             
     3     -1.3605826     23  2.200                                             
  local pseudopotential read in
  partial core-charges read in
  partial kinetic energy density read in
  atomic valenz-charges read in
  non local Contribution for L=           1  read in
    real space projection operators read in
  non local Contribution for L=           1  read in
    real space projection operators read in
  non local Contribution for L=           2  read in
    real space projection operators read in
  non local Contribution for L=           2  read in
    real space projection operators read in
  non local Contribution for L=           0  read in
    real space projection operators read in
  non local Contribution for L=           0  read in
    real space projection operators read in
    PAW grid and wavefunctions read in
 
   number of l-projection  operators is LMAX  =           6
   number of lm-projection operators is LMMAX =          18
 

 ----------------------------------------------------------------------------- 
|                                                                             |
|  ADVICE TO THIS USER RUNNING 'VASP/VAMP'   (HEAR YOUR MASTER'S VOICE ...):  |
|                                                                             |
|      You have a (more or less) 'large supercell' and for larger cells       |
|      it might be more efficient to use real space projection opertators     |
|      So try LREAL= Auto  in the INCAR   file.                               |
|      Mind:          For very  accurate calculation you might also keep the  |
|      reciprocal projection scheme          (i.e. LREAL=.FALSE.)             |
|                                                                             |
 ----------------------------------------------------------------------------- 


 ----------------------------------------------------------------------------- 
|                                                                             |
|  ADVICE TO THIS USER RUNNING 'VASP/VAMP'   (HEAR YOUR MASTER'S VOICE ...):  |
|                                                                             |
|      You enforced a specific xc-type in the INCAR file,                     |
|      a different type was found on the POTCAR file                          |
|          I HOPE YOU KNOW, WHAT YOU ARE  DOING                               |
|                                                                             |
 ----------------------------------------------------------------------------- 

  PAW_PBE S 06Sep2000                   :
 energy of atom  1       EATOM= -276.8230
 kinetic energy error for atom=    0.0007 (will be added to EATOM!!)
   PAW_PBE Cu_pv 06Sep2000              :
 energy of atom  2       EATOM=-4120.1201
 kinetic energy error for atom=    0.0094 (will be added to EATOM!!)
   PAW_PBE Fe_pv 02Aug2007              :
 energy of atom  3       EATOM=-2457.4239
 kinetic energy error for atom=    0.0025 (will be added to EATOM!!)
 
 
 POSCAR: Fe16 Cu16 S32                           
  positions in direct lattice
  No initial velocities read in
 exchange correlation table for  LEXCH =       14
   RHO(1)=    0.500       N(1)  =     2000
   RHO(2)=  100.500       N(2)  =     4000
 


--------------------------------------------------------------------------------------------------------


 ion  position               nearest neighbor table
   1  0.127  0.118  0.126-  41 2.25  61 2.26  37 2.28  49 2.30
   2  0.627  0.118  0.126-  42 2.25  62 2.26  38 2.28  50 2.30
   3  0.127  0.618  0.126-  43 2.25  63 2.26  39 2.28  51 2.30
   4  0.627  0.618  0.126-  44 2.25  64 2.26  40 2.28  52 2.30
   5  0.373  0.368  0.124-  39 2.25  52 2.26  41 2.28  62 2.30
   6  0.873  0.368  0.124-  40 2.25  51 2.26  42 2.28  61 2.30
   7  0.373  0.868  0.124-  37 2.25  50 2.26  43 2.28  64 2.30
   8  0.873  0.868  0.124-  38 2.25  49 2.26  44 2.28  63 2.30
   9  0.125  0.370  0.875-  51 2.27  55 2.27  41 2.27  45 2.27
  10  0.625  0.370  0.875-  52 2.27  56 2.27  42 2.27  46 2.27
  11  0.125  0.870  0.875-  49 2.27  53 2.27  43 2.27  47 2.27
  12  0.625  0.870  0.875-  50 2.27  54 2.27  44 2.27  48 2.27
  13  0.375  0.121  0.875-  41 2.26  46 2.26  50 2.29  53 2.29
  14  0.875  0.121  0.875-  42 2.26  45 2.26  49 2.29  54 2.29
  15  0.375  0.621  0.875-  43 2.26  48 2.26  52 2.29  55 2.29
  16  0.875  0.621  0.875-  44 2.26  47 2.26  51 2.29  56 2.29
  17  0.123  0.118  0.624-  45 2.25  57 2.26  33 2.28  53 2.30
  18  0.623  0.118  0.624-  46 2.25  58 2.26  34 2.28  54 2.30
  19  0.123  0.618  0.624-  47 2.25  59 2.26  35 2.28  55 2.30
  20  0.623  0.618  0.624-  48 2.25  60 2.26  36 2.28  56 2.30
  21  0.377  0.368  0.626-  36 2.25  55 2.26  46 2.28  57 2.30
  22  0.877  0.368  0.626-  35 2.25  56 2.26  45 2.28  58 2.30
  23  0.377  0.868  0.626-  34 2.25  53 2.26  48 2.28  59 2.30
  24  0.877  0.868  0.626-  33 2.25  54 2.26  47 2.28  60 2.30
  25  0.375  0.120  0.375-  57 2.27  62 2.27  34 2.27  37 2.27
  26  0.875  0.120  0.375-  58 2.27  61 2.27  33 2.27  38 2.27
  27  0.375  0.620  0.375-  59 2.27  64 2.27  36 2.27  39 2.27
  28  0.875  0.620  0.375-  60 2.27  63 2.27  35 2.27  40 2.27
  29  0.125  0.371  0.375-  35 2.26  39 2.26  57 2.29  61 2.29
  30  0.625  0.371  0.375-  36 2.26  40 2.26  58 2.29  62 2.29
  31  0.125  0.871  0.375-  33 2.26  37 2.26  59 2.29  63 2.29
  32  0.625  0.871  0.375-  34 2.26  38 2.26  60 2.29  64 2.29
  33  0.997  0.006  0.500-  24 2.25  31 2.26  26 2.27  17 2.28
  34  0.497  0.006  0.500-  23 2.25  32 2.26  25 2.27  18 2.28
  35  0.997  0.506  0.500-  22 2.25  29 2.26  28 2.27  19 2.28
  36  0.497  0.506  0.500-  21 2.25  30 2.26  27 2.27  20 2.28
  37  0.253  0.006  0.250-   7 2.25  31 2.26  25 2.27   1 2.28
  38  0.753  0.006  0.250-   8 2.25  32 2.26  26 2.27   2 2.28
  39  0.253  0.506  0.250-   5 2.25  29 2.26  27 2.27   3 2.28
  40  0.753  0.506  0.250-   6 2.25  30 2.26  28 2.27   4 2.28
  41  0.247  0.256  0.000-   1 2.25  13 2.26   9 2.27   5 2.28
  42  0.747  0.256  0.000-   2 2.25  14 2.26  10 2.27   6 2.28
  43  0.247  0.756  0.000-   3 2.25  15 2.26  11 2.27   7 2.28
  44  0.747  0.756  0.000-   4 2.25  16 2.26  12 2.27   8 2.28
  45  0.003  0.256  0.750-  17 2.25  14 2.26   9 2.27  22 2.28
  46  0.503  0.256  0.750-  18 2.25  13 2.26  10 2.27  21 2.28
  47  0.003  0.756  0.750-  19 2.25  16 2.26  11 2.27  24 2.28
  48  0.503  0.756  0.750-  20 2.25  15 2.26  12 2.27  23 2.28
  49  0.998  0.006  0.001-   8 2.26  11 2.27  14 2.29   1 2.30
  50  0.498  0.006  0.001-   7 2.26  12 2.27  13 2.29   2 2.30
  51  0.998  0.506  0.001-   6 2.26   9 2.27  16 2.29   3 2.30
  52  0.498  0.506  0.001-   5 2.26  10 2.27  15 2.29   4 2.30
  53  0.252  0.006  0.749-  23 2.26  11 2.27  13 2.29  17 2.30
  54  0.752  0.006  0.749-  24 2.26  12 2.27  14 2.29  18 2.30
  55  0.252  0.506  0.749-  21 2.26   9 2.27  15 2.29  19 2.30
  56  0.752  0.506  0.749-  22 2.26  10 2.27  16 2.29  20 2.30
  57  0.248  0.256  0.501-  17 2.26  25 2.27  29 2.29  21 2.30
  58  0.748  0.256  0.501-  18 2.26  26 2.27  30 2.29  22 2.30
  59  0.248  0.756  0.501-  19 2.26  27 2.27  31 2.29  23 2.30
  60  0.748  0.756  0.501-  20 2.26  28 2.27  32 2.29  24 2.30
  61  0.002  0.256  0.249-   1 2.26  26 2.27  29 2.29   6 2.30
  62  0.502  0.256  0.249-   2 2.26  25 2.27  30 2.29   5 2.30
  63  0.002  0.756  0.249-   3 2.26  28 2.27  31 2.29   8 2.30
  64  0.502  0.756  0.249-   4 2.26  27 2.27  32 2.29   7 2.30
 
  LATTYP: Found a simple monoclinic cell.
 ALAT       =    15.5783938121
 B/A-ratio  =     0.6761969897
 C/A-ratio  =     1.5610832955
 COS(beta)  =    -0.9579727919
  
  Lattice vectors:
  
 A1 = ( -11.0650180000,   0.0000000000, -10.9659350000)
 A2 = (   0.0000000000, -10.5340630000,   0.0000000000)
 A3 = (  11.6367960000,   0.0000000000,  21.3543210000)


Analysis of symmetry for initial positions (statically):
=====================================================================
 Subroutine PRICEL returns following result:
 
  LATTYP: Found a base centered monoclinic cell.
 ALAT       =    11.1290745427
 B/A-ratio  =     0.4732676989
 C/A-ratio  =     0.9348584579
 COS(beta)  =    -0.7981664675
  
  Lattice vectors:
  
 A1 = (  -2.3374210000,  -2.6335157500,   5.0498057500)
 A2 = (  -2.3374210000,   2.6335157500,   5.0498057500)
 A3 = (  -0.5717780000,   0.0000000000, -10.3883860000)
 
   8 primitive cells build up your supercell.
 

 Routine SETGRP: Setting up the symmetry group for a 
 simple monoclinic supercell.


 Subroutine GETGRP returns: Found  2 space group operations
 (whereof  1 operations were pure point group operations)
 out of a pool of  4 trial point group operations.


The static configuration has the point symmetry C_1 .
 The point group associated with its full space group is C_2 .


Analysis of symmetry for dynamics (positions and initial velocities):
=====================================================================
 Subroutine PRICEL returns following result:
 
  LATTYP: Found a base centered monoclinic cell.
 ALAT       =    11.1290745427
 B/A-ratio  =     0.4732676989
 C/A-ratio  =     0.9348584579
 COS(beta)  =    -0.7981664675
  
  Lattice vectors:
  
 A1 = (  -2.3374210000,  -2.6335157500,   5.0498057500)
 A2 = (  -2.3374210000,   2.6335157500,   5.0498057500)
 A3 = (  -0.5717780000,   0.0000000000, -10.3883860000)
 
   8 primitive cells build up your supercell.
 

 Routine SETGRP: Setting up the symmetry group for a 
 simple monoclinic supercell.


 Subroutine GETGRP returns: Found  2 space group operations
 (whereof  1 operations were pure point group operations)
 out of a pool of  4 trial point group operations.


The dynamic configuration has the point symmetry C_1 .
 The point group associated with its full space group is C_2 .


Analysis of structural, dynamic, and magnetic symmetry:
=====================================================================
 Subroutine PRICEL returns following result:
 
  LATTYP: Found a base centered monoclinic cell.
 ALAT       =    11.1290745427
 B/A-ratio  =     0.4732676989
 C/A-ratio  =     0.9348584579
 COS(beta)  =    -0.7981664675
  
  Lattice vectors:
  
 A1 = (  -2.3374210000,  -2.6335157500,   5.0498057500)
 A2 = (  -2.3374210000,   2.6335157500,   5.0498057500)
 A3 = (  -0.5717780000,   0.0000000000, -10.3883860000)
 
   8 primitive cells build up your supercell.
 

 Routine SETGRP: Setting up the symmetry group for a 
 simple monoclinic supercell.


 Subroutine GETGRP returns: Found  2 space group operations
 (whereof  1 operations were pure point group operations)
 out of a pool of  4 trial point group operations.


The magnetic configuration has the point symmetry C_1 .
 The point group associated with its full space group is C_2 .


 Subroutine INISYM returns: Found  2 space group operations
 (whereof  1 operations are pure point group operations),
 and found     8 'primitive' translations

 
 
 KPOINTS: Automatic mesh                          

Automatic generation of k-mesh.
Space group operators:
 irot       det(A)        alpha          n_x          n_y          n_z        tau_x        tau_y        tau_z
    1     1.000000     0.000001     1.000000     0.000000     0.000000     0.000000     0.000000     0.000000
    2     1.000000   180.000000     0.000000     1.000000     0.000000    -0.250000     0.000000    -0.250000
 
 Subroutine IBZKPT returns following result:
 ===========================================
 
 Found      8 irreducible k-points:
 
 Following reciprocal coordinates:
            Coordinates               Weight
  0.000000  0.000000  0.000000      1.000000
  0.500000  0.000000 -0.000000      1.000000
  0.000000  0.500000  0.000000      1.000000
  0.500000  0.500000 -0.000000      1.000000
 -0.000000  0.000000  0.500000      1.000000
  0.500000  0.000000  0.500000      1.000000
 -0.000000  0.500000  0.500000      1.000000
  0.500000  0.500000  0.500000      1.000000
 
 Following cartesian coordinates:
            Coordinates               Weight
  0.000000  0.000000  0.000000      1.000000
  0.047795  0.000000 -0.002631      1.000000
  0.000000  0.047465  0.000000      1.000000
  0.047795  0.047465 -0.002631      1.000000
 -0.002657  0.000000  0.048277      1.000000
  0.045137  0.000000  0.045646      1.000000
 -0.002657  0.047465  0.048277      1.000000
  0.045137  0.047465  0.045646      1.000000
 
 TETIRR: Found     24 inequivalent tetrahedra from       48
 
 Subroutine IBZKPT_HF returns following result:
 ==============================================
 
 Found      8 k-points in 1st BZ
 the following      8 k-points will be used (e.g. in the exchange kernel)
 Following reciprocal coordinates:   # in IRBZ
  0.000000  0.000000  0.000000    0.12500000   1 t-inv F
  0.500000  0.000000 -0.000000    0.12500000   2 t-inv F
  0.000000  0.500000  0.000000    0.12500000   3 t-inv F
  0.500000  0.500000 -0.000000    0.12500000   4 t-inv F
 -0.000000  0.000000  0.500000    0.12500000   5 t-inv F
  0.500000  0.000000  0.500000    0.12500000   6 t-inv F
 -0.000000  0.500000  0.500000    0.12500000   7 t-inv F
  0.500000  0.500000  0.500000    0.12500000   8 t-inv F


--------------------------------------------------------------------------------------------------------




 Dimension of arrays:
   k-points           NKPTS =      8   k-points in BZ     NKDIM =      8   number of bands    NBANDS=    512
   number of dos      NEDOS =    301   number of ions     NIONS =     64
   non local maximal  LDIM  =      6   non local SUM 2l+1 LMDIM =     18
   total plane-waves  NPLWV = 829440
   max r-space proj   IRMAX =      1   max aug-charges    IRDMAX=  23023
   dimension x,y,z NGX =    96 NGY =   96 NGZ =   90
   dimension x,y,z NGXF=   192 NGYF=  192 NGZF=  180
   support grid    NGXF=   192 NGYF=  192 NGZF=  180
   ions per type =              32  16  16
   NGX,Y,Z   is equivalent  to a cutoff of  15.19, 15.15, 14.38 a.u.
   NGXF,Y,Z  is equivalent  to a cutoff of  30.37, 30.30, 28.76 a.u.

 SYSTEM =  CuFeS2                                  
 POSCAR =  Fe16 Cu16 S32                           

 Startparameter for this run:
   NWRITE =      2    write-flag & timer
   PREC   = accura    normal or accurate (medium, high low for compatibility)
   ISTART =      0    job   : 0-new  1-cont  2-samecut
   ICHARG =      1    charge: 1-file 2-atom 10-const
   ISPIN  =      2    spin polarized calculation?
   LNONCOLLINEAR =      F non collinear calculations
   LSORBIT =      F    spin-orbit coupling
   INIWAV =      1    electr: 0-lowe 1-rand  2-diag
   LASPH  =      F    aspherical Exc in radial PAW
   METAGGA=      F    non-selfconsistent MetaGGA calc.

 Electronic Relaxation 1
   ENCUT  =  700.0 eV  51.45 Ry    7.17 a.u.  22.67 22.72 22.44*2*pi/ulx,y,z
   ENINI  =  700.0     initial cutoff
   ENAUG  =  758.2 eV  augmentation charge cutoff
   NELM   =    500;   NELMIN=  2; NELMDL=  0     # of ELM steps 
   EDIFF  = 0.1E-07   stopping-criterion for ELM
   LREAL  =      F    real-space projection
   NLSPLINE    = F    spline interpolate recip. space projectors
   LCOMPAT=      F    compatible to vasp.4.4
   GGA_COMPAT  = T    GGA compatible to vasp.4.4-vasp.4.6
   LMAXPAW     = -100 max onsite density
   LMAXMIX     =    4 max onsite mixed and CHGCAR
   VOSKOWN=      0    Vosko Wilk Nusair interpolation
   ROPT   =    0.00000   0.00000   0.00000
 Ionic relaxation
   EDIFFG = -.1E-04   stopping-criterion for IOM
   NSW    =      0    number of steps for IOM
   NBLOCK =      1;   KBLOCK =      1    inner block; outer block 
   IBRION =     -1    ionic relax: 0-MD 1-quasi-New 2-CG
   NFREE  =      0    steps in history (QN), initial steepest desc. (CG)
   ISIF   =      2    stress and relaxation
   IWAVPR =     10    prediction:  0-non 1-charg 2-wave 3-comb
   ISYM   =      2    0-nonsym 1-usesym 2-fastsym
   LCORR  =      T    Harris-Foulkes like correction to forces

   POTIM  = 0.5000    time-step for ionic-motion
   TEIN   =    0.0    initial temperature
   TEBEG  =    0.0;   TEEND  =   0.0 temperature during run
   SMASS  =  -3.00    Nose mass-parameter (am)
   estimated Nose-frequenzy (Omega)   =  0.10E-29 period in steps =****** mass=  -0.252E-26a.u.
   SCALEE = 1.0000    scale energy and forces
   NPACO  =    256;   APACO  = 16.0  distance and # of slots for P.C.
   PSTRESS=    0.0 pullay stress

  Mass of Ions in am
   POMASS =  32.07 63.55 55.85
  Ionic Valenz
   ZVAL   =   6.00 17.00 14.00
  Atomic Wigner-Seitz radii
   RWIGS  =  -1.00 -1.00 -1.00
  virtual crystal weights 
   VCA    =   1.00  1.00  1.00
   NELECT =     688.0000    total number of electrons
   NUPDOWN=      -1.0000    fix difference up-down

 DOS related values:
   EMIN   =  10.00;   EMAX   =-10.00  energy-range for DOS
   EFERMI =   0.00
   ISMEAR =    -5;   SIGMA  =   0.03  broadening in eV -4-tet -1-fermi 0-gaus

 Electronic relaxation 2 (details)
   IALGO  =     38    algorithm
   LDIAG  =      T    sub-space diagonalisation (order eigenvalues)
   LSUBROT=      F    optimize rotation matrix (better conditioning)
   TURBO    =      0    0=normal 1=particle mesh
   IRESTART =      0    0=no restart 2=restart with 2 vectors
   NREBOOT  =      0    no. of reboots
   NMIN     =      0    reboot dimension
   EREF     =   0.00    reference energy to select bands
   IMIX   =      4    mixing-type and parameters
     AMIX     =   0.40;   BMIX     =  1.00
     AMIX_MAG =   1.60;   BMIX_MAG =  1.00
     AMIN     =   0.10
     WC   =   100.;   INIMIX=   1;  MIXPRE=   1;  MAXMIX= -45

 Intra band minimization:
   WEIMIN = 0.0000     energy-eigenvalue tresh-hold
   EBREAK =  0.49E-11  absolut break condition
   DEPER  =   0.30     relativ break condition  

   TIME   =   0.40     timestep for ELM

  volume/ion in A,a.u.               =      17.89       120.71
  Fermi-wavevector in a.u.,A,eV,Ry     =   1.381526  2.610705 25.968263  1.908614
  Thomas-Fermi vector in A             =   2.506302
 
 Write flags
   LWAVE        =      T    write WAVECAR
   LDOWNSAMPLE  =      F    k-point downsampling of WAVECAR
   LCHARG       =      T    write CHGCAR
   LVTOT        =      F    write LOCPOT, total local potential
   LVHAR        =      F    write LOCPOT, Hartree potential only
   LELF         =      F    write electronic localiz. function (ELF)
   LORBIT       =     11    0 simple, 1 ext, 2 COOP (PROOUT), +10 PAW based schemes


 Dipole corrections
   LMONO  =      F    monopole corrections only (constant potential shift)
   LDIPOL =      F    correct potential (dipole corrections)
   IDIPOL =      0    1-x, 2-y, 3-z, 4-all directions 
   EPSILON=  1.0000000 bulk dielectric constant

 LDA+U is selected, type is set to LDAUTYPE =  2
   angular momentum for each species LDAUL =     2    2    2
   U (eV)           for each species LDAUU =   0.0  0.1  4.7
   J (eV)           for each species LDAUJ =   0.0  0.0  0.0
 Exchange correlation treatment:
   GGA     =    PS    GGA type
   LEXCH   =    14    internal setting for exchange type
   VOSKOWN=      0    Vosko Wilk Nusair interpolation
   LHFCALC =     F    Hartree Fock is set to
   LHFONE  =     F    Hartree Fock one center treatment
   AEXX    =    0.0000 exact exchange contribution

 Linear response parameters
   LEPSILON=     F    determine dielectric tensor
   LRPA    =     F    only Hartree local field effects (RPA)
   LNABLA  =     F    use nabla operator in PAW spheres
   LVEL    =     F    velocity operator in full k-point grid
   LINTERFAST=   F  fast interpolation
   KINTER  =     0    interpolate to denser k-point grid
   CSHIFT  =0.1000    complex shift for real part using Kramers Kronig
   OMEGAMAX=  -1.0    maximum frequency
   DEG_THRESHOLD= 0.2000000E-02 threshold for treating states as degnerate
   RTIME   =   -0.100 relaxation time in fs
  (WPLASMAI=    0.000 imaginary part of plasma frequency in eV, 0.658/RTIME)
   DFIELD  = 0.0000000 0.0000000 0.0000000 field for delta impulse in time
 
 Orbital magnetization related:
   ORBITALMAG=     F  switch on orbital magnetization
   LCHIMAG   =     F  perturbation theory with respect to B field
   DQ        =  0.001000  dq finite difference perturbation B field
   LLRAUG    =     F  two centre corrections for induced B field

 PEAD related settings:
   LPEAD      =     T    switch on PEAD
   IPEAD      =     4    finite difference order for dpsi/dk
   LCALCPOL   =     T    calculate macroscopic polarization
   LCALCEPS   =     F    calculate dielectric tensor
   EFIELD_PEAD=    0.0000    0.0000    0.0000
   SKIP_EDOTP =     F
   LRPA       =     F
   SKIP_SCF   =     F


--------------------------------------------------------------------------------------------------------


 Static calculation
 charge density and potential will be updated during run
 spin polarized calculation
 Variant of blocked Davidson
 Davidson routine will perform the subspace rotation
 perform sub-space diagonalisation
    after iterative eigenvector-optimisation
 modified Broyden-mixing scheme, WC =      100.0
 initial mixing is a Kerker type mixing with AMIX =  0.4000 and BMIX =      1.0000
 Hartree-type preconditioning will be used
 using additional bands          168
 reciprocal scheme for non local part
 use partial core corrections
 calculate Harris-corrections to forces 
   (improved forces if not selfconsistent)
 use gradient corrections 
 use of overlap-Matrix (Vanderbilt PP)
 Fermi weights with tetrahedron method with Bloechl corrections


--------------------------------------------------------------------------------------------------------


  energy-cutoff  :      700.00
  volume of cell :     1144.82
      direct lattice vectors                 reciprocal lattice vectors
    10.493240000  0.000000000  0.577549000     0.095589029  0.000000000 -0.005261231
     0.000000000 10.534063000  0.000000000     0.000000000  0.094930133  0.000000000
     0.571778000  0.000000000 10.388386000    -0.005314334  0.000000000  0.096553846

  length of vectors
    10.509122159 10.534063000 10.404109465     0.095733709  0.094930133  0.096699986


 
 k-points in units of 2pi/SCALE and weight: Automatic mesh                          
   0.00000000  0.00000000  0.00000000       0.125
   0.04779451  0.00000000 -0.00263062       0.125
   0.00000000  0.04746507  0.00000000       0.125
   0.04779451  0.04746507 -0.00263062       0.125
  -0.00265717  0.00000000  0.04827692       0.125
   0.04513735  0.00000000  0.04564631       0.125
  -0.00265717  0.04746507  0.04827692       0.125
   0.04513735  0.04746507  0.04564631       0.125
 
 k-points in reciprocal lattice and weights: Automatic mesh                          
   0.00000000  0.00000000  0.00000000       0.125
   0.50000000  0.00000000 -0.00000000       0.125
   0.00000000  0.50000000  0.00000000       0.125
   0.50000000  0.50000000 -0.00000000       0.125
  -0.00000000  0.00000000  0.50000000       0.125
   0.50000000  0.00000000  0.50000000       0.125
  -0.00000000  0.50000000  0.50000000       0.125
   0.50000000  0.50000000  0.50000000       0.125
 
 position of ions in fractional coordinates (direct lattice) 
   0.12659800  0.11777400  0.12603200
   0.62659800  0.11777400  0.12603200
   0.12659800  0.61777400  0.12603200
   0.62659800  0.61777400  0.12603200
   0.37340200  0.36777400  0.12396800
   0.87340200  0.36777400  0.12396800
   0.37340200  0.86777400  0.12396800
   0.87340200  0.86777400  0.12396800
   0.12500000  0.37022800  0.87500000
   0.62500000  0.37022800  0.87500000
   0.12500000  0.87022800  0.87500000
   0.62500000  0.87022800  0.87500000
   0.37500000  0.12145200  0.87500000
   0.87500000  0.12145200  0.87500000
   0.37500000  0.62145200  0.87500000
   0.87500000  0.62145200  0.87500000
   0.12340200  0.11777400  0.62396800
   0.62340200  0.11777400  0.62396800
   0.12340200  0.61777400  0.62396800
   0.62340200  0.61777400  0.62396800
   0.37659800  0.36777400  0.62603200
   0.87659800  0.36777400  0.62603200
   0.37659800  0.86777400  0.62603200
   0.87659800  0.86777400  0.62603200
   0.37500000  0.12022800  0.37500000
   0.87500000  0.12022800  0.37500000
   0.37500000  0.62022800  0.37500000
   0.87500000  0.62022800  0.37500000
   0.12500000  0.37145200  0.37500000
   0.62500000  0.37145200  0.37500000
   0.12500000  0.87145200  0.37500000
   0.62500000  0.87145200  0.37500000
   0.99704900  0.00571900  0.50002600
   0.49704900  0.00571900  0.50002600
   0.99704900  0.50571900  0.50002600
   0.49704900  0.50571900  0.50002600
   0.25295100  0.00571900  0.24997400
   0.75295100  0.00571900  0.24997400
   0.25295100  0.50571900  0.24997400
   0.75295100  0.50571900  0.24997400
   0.24704900  0.25571900  0.00002600
   0.74704900  0.25571900  0.00002600
   0.24704900  0.75571900  0.00002600
   0.74704900  0.75571900  0.00002600
   0.00295100  0.25571900  0.74997400
   0.50295100  0.25571900  0.74997400
   0.00295100  0.75571900  0.74997400
   0.50295100  0.75571900  0.74997400
   0.99815700  0.00566700  0.00123100
   0.49815700  0.00566700  0.00123100
   0.99815700  0.50566700  0.00123100
   0.49815700  0.50566700  0.00123100
   0.25184300  0.00566700  0.74876900
   0.75184300  0.00566700  0.74876900
   0.25184300  0.50566700  0.74876900
   0.75184300  0.50566700  0.74876900
   0.24815700  0.25566700  0.50123100
   0.74815700  0.25566700  0.50123100
   0.24815700  0.75566700  0.50123100
   0.74815700  0.75566700  0.50123100
   0.00184300  0.25566700  0.24876900
   0.50184300  0.25566700  0.24876900
   0.00184300  0.75566700  0.24876900
   0.50184300  0.75566700  0.24876900
 
 position of ions in cartesian coordinates  (Angst):
   1.40048552  1.24063874  1.38238561
   6.64710552  1.24063874  1.67116011
   1.40048552  6.50767024  1.38238561
   6.64710552  6.50767024  1.67116011
   3.98907898  3.87415449  1.50348539
   9.23569898  3.87415449  1.79225989
   3.98907898  9.14118599  1.50348539
   9.23569898  9.14118599  1.79225989
   1.81196075  3.90000508  9.16203138
   7.05858075  3.90000508  9.45080588
   1.81196075  9.16703658  9.16203138
   7.05858075  9.16703658  9.45080588
   4.43527075  1.27938302  9.30641863
   9.68189075  1.27938302  9.59519313
   4.43527075  6.54641452  9.30641863
   9.68189075  6.54641452  9.59519313
   1.65165798  1.24063874  6.55329114
   6.89827798  1.24063874  6.84206564
   1.65165798  6.50767024  6.55329114
   6.89827798  6.50767024  6.84206564
   4.30968452  3.87415449  6.72096586
   9.55630452  3.87415449  7.00974036
   4.30968452  9.14118599  6.72096586
   9.55630452  9.14118599  7.00974036
   4.14938175  1.26648933  4.11222563
   9.39600175  1.26648933  4.40100013
   4.14938175  6.53352083  4.11222563
   9.39600175  6.53352083  4.40100013
   1.52607175  3.91289877  3.96783838
   6.77269175  3.91289877  4.25661288
   1.52607175  9.17993027  3.96783838
   6.77269175  9.17993027  4.25661288
  10.74817831  0.06024431  5.77030775
   5.50155831  0.06024431  5.48153325
  10.74817831  5.32727581  5.77030775
   5.50155831  5.32727581  5.48153325
   2.79720519  0.06024431  2.74291800
   8.04382519  0.06024431  3.03169250
   2.79720519  5.32727581  2.74291800
   8.04382519  5.32727581  3.03169250
   2.59235931  2.69376006  0.14295300
   7.83897931  2.69376006  0.43172750
   2.59235931  7.96079156  0.14295300
   7.83897931  7.96079156  0.43172750
   0.45978419  2.69376006  7.79272375
   5.70640419  2.69376006  8.08149825
   0.45978419  7.96079156  7.79272375
   5.70640419  7.96079156  8.08149825
  10.47460482  0.05969654  0.58927268
   5.22798482  0.05969654  0.30049818
  10.47460482  5.32672804  0.58927268
   5.22798482  5.32672804  0.30049818
   3.07077868  0.05969654  7.92395307
   8.31739868  0.05969654  8.21272757
   3.07077868  5.32672804  7.92395307
   8.31739868  5.32672804  8.21272757
   2.89056382  2.69321229  5.35030393
   8.13718382  2.69321229  5.63907843
   2.89056382  7.96024379  5.35030393
   8.13718382  7.96024379  5.63907843
   0.16157968  2.69321229  2.58537282
   5.40819968  2.69321229  2.87414732
   0.16157968  7.96024379  2.58537282
   5.40819968  7.96024379  2.87414732
 


--------------------------------------------------------------------------------------------------------


 k-point  1 :   0.0000 0.0000 0.0000  plane waves:   48173
 k-point  2 :   0.5000 0.0000-0.0000  plane waves:   48184
 k-point  3 :   0.0000 0.5000 0.0000  plane waves:   48166
 k-point  4 :   0.5000 0.5000-0.0000  plane waves:   48136
 k-point  5 :  -0.0000 0.0000 0.5000  plane waves:   48130
 k-point  6 :   0.5000 0.0000 0.5000  plane waves:   48172
 k-point  7 :  -0.0000 0.5000 0.5000  plane waves:   48148
 k-point  8 :   0.5000 0.5000 0.5000  plane waves:   48100

 maximum and minimum number of plane-waves per node :     48184    48100

 maximum number of plane-waves:     48184
 maximum index in each direction: 
   IXMAX=   22   IYMAX=   22   IZMAX=   22
   IXMIN=  -23   IYMIN=  -23   IZMIN=  -22


 serial   3D FFT for wavefunctions
 parallel 3D FFT for charge:
    minimum data exchange during FFTs selected (reduces bandwidth)


 total amount of memory used by VASP MPI-rank0   348353. kBytes
=======================================================================

   base      :      30000. kBytes
   nonl-proj :     216760. kBytes
   fftplans  :       4588. kBytes
   grid      :      69719. kBytes
   one-center:       1990. kBytes
   wavefun   :      25296. kBytes
 
     INWAV:  cpu time    0.0001: real time    0.0002
 Broyden mixing: mesh for mixing (old mesh)
   NGX = 45   NGY = 45   NGZ = 45
  (NGX  =192   NGY  =192   NGZ  =180)
  gives a total of  91125 points

 initial charge density was supplied:
 number of electron     687.9999938 magnetization      -0.0000000
 keeping initial charge density in first step


--------------------------------------------------------------------------------------------------------


 Maximum index for augmentation-charges          894 (set IRDMAX)


--------------------------------------------------------------------------------------------------------


 First call to EWALD:  gamma=   0.169
 Maximum number of real-space cells 3x 3x 3
 Maximum number of reciprocal cells 3x 3x 3

    FEWALD:  cpu time    0.0047: real time    0.0047


--------------------------------------- Iteration      1(   1)  ---------------------------------------


    POTLOK:  cpu time    0.3603: real time    0.4311
    SETDIJ:  cpu time    0.0143: real time    0.0144
     EDDAV:  cpu time   83.2979: real time   84.2912
 BZINTS: Fermi energy: 14.880375;688.000000 electrons
         Band energy:***********;  BLOECHL correction: -0.010515
       DOS:  cpu time    0.0393: real time    0.0394
    --------------------------------------------
      LOOP:  cpu time   83.7119: real time   84.7763

 eigenvalue-minimisations  : 16384
 total energy-change (2. order) : 0.6038824E+04  (-0.5170832E+05)
 number of electron     687.9999938 magnetization      -0.0000000
 augmentation part      687.9999938 magnetization      -0.0000000

 Free energy of the ion-electron system (eV)
  ---------------------------------------------------
  alpha Z        PSCENC =      2368.19626899
  Ewald energy   TEWEN  =    -62621.30894224
  -Hartree energ DENC   =    -42738.02010634
  -exchange      EXHF   =         0.00000000
  -V(xc)+E(xc)   XCENC  =      3282.17811735
  PAW double counting   =    112052.39469906  -115742.30158738
  entropy T*S    EENTRO =         0.00000000
  eigenvalues    EBANDS =     -4582.37970130
  atomic energy  EATOM  =    114020.06510763
  Solvation  Ediel_sol  =         0.00000000
  ---------------------------------------------------
  free energy    TOTEN  =      6038.82385576 eV

  energy without entropy =     6038.82385576  energy(sigma->0) =     6038.82385576


--------------------------------------------------------------------------------------------------------




--------------------------------------- Iteration      1(   2)  ---------------------------------------


     EDDAV:  cpu time   97.1297: real time   97.8724
 BZINTS: Fermi energy:  5.532326;688.000000 electrons
         Band energy:***********;  BLOECHL correction:  0.000000
       DOS:  cpu time    0.0102: real time    0.0102
    --------------------------------------------
      LOOP:  cpu time   97.1399: real time   97.8825

 eigenvalue-minimisations  : 17920
 total energy-change (2. order) :-0.6124962E+04  (-0.6016225E+04)
 number of electron     687.9999938 magnetization      -0.0000000
 augmentation part      687.9999938 magnetization      -0.0000000

 Free energy of the ion-electron system (eV)
  ---------------------------------------------------
  alpha Z        PSCENC =      2368.19626899
  Ewald energy   TEWEN  =    -62621.30894224
  -Hartree energ DENC   =    -42738.02010634
  -exchange      EXHF   =         0.00000000
  -V(xc)+E(xc)   XCENC  =      3282.17811735
  PAW double counting   =    112052.39469906  -115742.30158738
  entropy T*S    EENTRO =         0.00000000
  eigenvalues    EBANDS =    -10707.34132617
  atomic energy  EATOM  =    114020.06510763
  Solvation  Ediel_sol  =         0.00000000
  ---------------------------------------------------
  free energy    TOTEN  =       -86.13776911 eV

  energy without entropy =      -86.13776911  energy(sigma->0) =      -86.13776911


--------------------------------------------------------------------------------------------------------




--------------------------------------- Iteration      1(   3)  ---------------------------------------


     EDDAV:  cpu time  158.3578: real time  159.4684
 BZINTS: Fermi energy:  5.096028;688.000000 electrons
         Band energy:***********;  BLOECHL correction:  0.000000
       DOS:  cpu time    0.0067: real time    0.0067
    --------------------------------------------
      LOOP:  cpu time  158.3645: real time  159.4751

 eigenvalue-minimisations  : 23040
 total energy-change (2. order) :-0.2476738E+03  (-0.2468027E+03)
 number of electron     687.9999938 magnetization      -0.0000000
 augmentation part      687.9999938 magnetization      -0.0000000

 Free energy of the ion-electron system (eV)
  ---------------------------------------------------
  alpha Z        PSCENC =      2368.19626899
  Ewald energy   TEWEN  =    -62621.30894224
  -Hartree energ DENC   =    -42738.02010634
  -exchange      EXHF   =         0.00000000
  -V(xc)+E(xc)   XCENC  =      3282.17811735
  PAW double counting   =    112052.39469906  -115742.30158738
  entropy T*S    EENTRO =         0.00000000
  eigenvalues    EBANDS =    -10955.01512404
  atomic energy  EATOM  =    114020.06510763
  Solvation  Ediel_sol  =         0.00000000
  ---------------------------------------------------
  free energy    TOTEN  =      -333.81156697 eV

  energy without entropy =     -333.81156697  energy(sigma->0) =     -333.81156697


--------------------------------------------------------------------------------------------------------




--------------------------------------- Iteration      1(   4)  ---------------------------------------


     EDDAV:  cpu time  120.5891: real time  121.4688
 BZINTS: Fermi energy:  4.943298;688.000000 electrons
         Band energy:***********;  BLOECHL correction:  0.000000
       DOS:  cpu time    0.0066: real time    0.0066
    --------------------------------------------
      LOOP:  cpu time  120.5957: real time  121.4754

 eigenvalue-minimisations  : 19456
 total energy-change (2. order) :-0.3379924E+01  (-0.3379772E+01)
 number of electron     687.9999938 magnetization      -0.0000000
 augmentation part      687.9999938 magnetization      -0.0000000

 Free energy of the ion-electron system (eV)
  ---------------------------------------------------
  alpha Z        PSCENC =      2368.19626899
  Ewald energy   TEWEN  =    -62621.30894224
  -Hartree energ DENC   =    -42738.02010634
  -exchange      EXHF   =         0.00000000
  -V(xc)+E(xc)   XCENC  =      3282.17811735
  PAW double counting   =    112052.39469906  -115742.30158738
  entropy T*S    EENTRO =         0.00000000
  eigenvalues    EBANDS =    -10958.39504774
  atomic energy  EATOM  =    114020.06510763
  Solvation  Ediel_sol  =         0.00000000
  ---------------------------------------------------
  free energy    TOTEN  =      -337.19149068 eV

  energy without entropy =     -337.19149068  energy(sigma->0) =     -337.19149068


--------------------------------------------------------------------------------------------------------




--------------------------------------- Iteration      1(   5)  ---------------------------------------


     EDDAV:  cpu time  145.4601: real time  146.4809
 BZINTS: Fermi energy:  4.962529;688.000000 electrons
         Band energy:***********;  BLOECHL correction:  0.000000
       DOS:  cpu time    0.0057: real time    0.0057
    CHARGE:  cpu time    1.3919: real time    1.4006
    MIXING:  cpu time    0.0041: real time    0.0042
    --------------------------------------------
      LOOP:  cpu time  146.8619: real time  147.8914

 eigenvalue-minimisations  : 21504
 total energy-change (2. order) :-0.1032055E+00  (-0.1032050E+00)
 number of electron     688.0000059 magnetization      -0.0000000
 augmentation part      284.0466398 magnetization      -0.0000000

 Broyden mixing:
  rms(total) = 0.25092E+01    rms(broyden)= 0.25088E+01
  rms(prec ) = 0.28153E+01
  weight for this iteration     100.00

 Free energy of the ion-electron system (eV)
  ---------------------------------------------------
  alpha Z        PSCENC =      2368.19626899
  Ewald energy   TEWEN  =    -62621.30894224
  -Hartree energ DENC   =    -42738.02010634
  -exchange      EXHF   =         0.00000000
  -V(xc)+E(xc)   XCENC  =      3282.17811735
  PAW double counting   =    112052.39469906  -115742.30158738
  entropy T*S    EENTRO =         0.00000000
  eigenvalues    EBANDS =    -10958.49825327
  atomic energy  EATOM  =    114020.06510763
  Solvation  Ediel_sol  =         0.00000000
  ---------------------------------------------------
  free energy    TOTEN  =      -337.29469621 eV

  energy without entropy =     -337.29469621  energy(sigma->0) =     -337.29469621


--------------------------------------------------------------------------------------------------------




--------------------------------------- Iteration      1(   6)  ---------------------------------------


    POTLOK:  cpu time    0.1205: real time    0.1216
    SETDIJ:  cpu time    0.0127: real time    0.0128
     EDDAV:  cpu time  208.7760: real time  210.1954
 BZINTS: Fermi energy:  5.047971;688.000000 electrons
         Band energy:***********;  BLOECHL correction:  0.000000
       DOS:  cpu time    0.0058: real time    0.0059
    CHARGE:  cpu time    1.3898: real time    1.3984
    MIXING:  cpu time    0.0024: real time    0.1200
    --------------------------------------------
      LOOP:  cpu time  210.3074: real time  211.8541

 eigenvalue-minimisations  : 28160
 total energy-change (2. order) : 0.7813071E+01  (-0.1041925E+01)
 number of electron     688.0000058 magnetization      -0.0000000
 augmentation part      281.0240753 magnetization      -0.0000000

 Broyden mixing:
  rms(total) = 0.14133E+01    rms(broyden)= 0.14133E+01
  rms(prec ) = 0.15768E+01
  weight for this iteration     100.00

 eigenvalues of (default mixing * dielectric matrix)
  average eigenvalue GAMMA=   0.7865
  0.7865

 Free energy of the ion-electron system (eV)
  ---------------------------------------------------
  alpha Z        PSCENC =      2368.19626899
  Ewald energy   TEWEN  =    -62621.30894224
  -Hartree energ DENC   =    -42921.48627566
  -exchange      EXHF   =         0.00000000
  -V(xc)+E(xc)   XCENC  =      3287.74015434
  PAW double counting   =    113062.94067191  -116774.53148416
  entropy T*S    EENTRO =         0.00000000
  eigenvalues    EBANDS =    -10751.09712595
  atomic energy  EATOM  =    114020.06510763
  Solvation  Ediel_sol  =         0.00000000
  ---------------------------------------------------
  free energy    TOTEN  =      -329.48162516 eV

  energy without entropy =     -329.48162516  energy(sigma->0) =     -329.48162516


--------------------------------------------------------------------------------------------------------




--------------------------------------- Iteration      1(   7)  ---------------------------------------


    POTLOK:  cpu time    0.1226: real time    0.1235
    SETDIJ:  cpu time    0.0129: real time    0.0129
     EDDAV:  cpu time  108.5877: real time  109.4063
 BZINTS: Fermi energy:  4.903646;688.000000 electrons
         Band energy:***********;  BLOECHL correction:  0.000000
       DOS:  cpu time    0.0064: real time    0.0064
    CHARGE:  cpu time    1.3891: real time    1.3973
    MIXING:  cpu time    0.0016: real time    0.0037
    --------------------------------------------
      LOOP:  cpu time  110.1204: real time  110.9501

 eigenvalue-minimisations  : 19200
 total energy-change (2. order) : 0.1969393E+01  (-0.7787076E+00)
 number of electron     688.0000058 magnetization      -0.0000000
 augmentation part      282.9833933 magnetization      -0.0000000

 Broyden mixing:
  rms(total) = 0.97544E+00    rms(broyden)= 0.97543E+00
  rms(prec ) = 0.10799E+01
  weight for this iteration     100.00

 eigenvalues of (default mixing * dielectric matrix)
  average eigenvalue GAMMA=   1.0105
  1.4703  0.5507

 Free energy of the ion-electron system (eV)
  ---------------------------------------------------
  alpha Z        PSCENC =      2368.19626899
  Ewald energy   TEWEN  =    -62621.30894224
  -Hartree energ DENC   =    -42791.00065894
  -exchange      EXHF   =         0.00000000
  -V(xc)+E(xc)   XCENC  =      3284.62828989
  PAW double counting   =    112685.17174380  -116370.23656288
  entropy T*S    EENTRO =         0.00000000
  eigenvalues    EBANDS =    -10903.02747807
  atomic energy  EATOM  =    114020.06510763
  Solvation  Ediel_sol  =         0.00000000
  ---------------------------------------------------
  free energy    TOTEN  =      -327.51223182 eV

  energy without entropy =     -327.51223182  energy(sigma->0) =     -327.51223182


--------------------------------------------------------------------------------------------------------




--------------------------------------- Iteration      1(   8)  ---------------------------------------


    POTLOK:  cpu time    0.1215: real time    0.1225
    SETDIJ:  cpu time    0.0129: real time    0.0129
     EDDAV:  cpu time  186.0692: real time  187.3396
 BZINTS: Fermi energy:  5.056974;688.000000 electrons
         Band energy:***********;  BLOECHL correction:  0.000000
       DOS:  cpu time    0.0056: real time    0.0057
    CHARGE:  cpu time    1.3895: real time    1.3980
    MIXING:  cpu time    0.0016: real time    0.0258
    --------------------------------------------
      LOOP:  cpu time  187.6003: real time  188.9045

 eigenvalue-minimisations  : 25600
 total energy-change (2. order) : 0.4228769E+00  (-0.8358075E+00)
 number of electron     688.0000058 magnetization      -0.0000000
 augmentation part      282.7849792 magnetization      -0.0000000

 Broyden mixing:
  rms(total) = 0.86290E+00    rms(broyden)= 0.86288E+00
  rms(prec ) = 0.10202E+01
  weight for this iteration     100.00

 eigenvalues of (default mixing * dielectric matrix)
  average eigenvalue GAMMA=   0.8372
  1.5838  0.4639  0.4639

 Free energy of the ion-electron system (eV)
  ---------------------------------------------------
  alpha Z        PSCENC =      2368.19626899
  Ewald energy   TEWEN  =    -62621.30894224
  -Hartree energ DENC   =    -42854.00877604
  -exchange      EXHF   =         0.00000000
  -V(xc)+E(xc)   XCENC  =      3287.30541462
  PAW double counting   =    112525.67739112  -116217.05452798
  entropy T*S    EENTRO =         0.00000000
  eigenvalues    EBANDS =    -10835.96129101
  atomic energy  EATOM  =    114020.06510763
  Solvation  Ediel_sol  =         0.00000000
  ---------------------------------------------------
  free energy    TOTEN  =      -327.08935492 eV

  energy without entropy =     -327.08935492  energy(sigma->0) =     -327.08935492


--------------------------------------------------------------------------------------------------------




--------------------------------------- Iteration      1(   9)  ---------------------------------------


    POTLOK:  cpu time    0.1223: real time    0.1230
    SETDIJ:  cpu time    0.0128: real time    0.0129
     EDDAV:  cpu time  134.8940: real time  135.8658
 BZINTS: Fermi energy:  5.023599;688.000000 electrons
         Band energy:***********;  BLOECHL correction:  0.000000
       DOS:  cpu time    0.0056: real time    0.0057
    CHARGE:  cpu time    1.3867: real time    1.3952
    MIXING:  cpu time    0.0013: real time    0.0013
    --------------------------------------------
      LOOP:  cpu time  136.4227: real time  137.4038

 eigenvalue-minimisations  : 21248
 total energy-change (2. order) : 0.2816531E+00  (-0.3347547E+00)
 number of electron     688.0000058 magnetization      -0.0000000
 augmentation part      282.4212592 magnetization      -0.0000000

 Broyden mixing:
  rms(total) = 0.30916E+00    rms(broyden)= 0.30914E+00
  rms(prec ) = 0.31967E+00
  weight for this iteration     100.00

 eigenvalues of (default mixing * dielectric matrix)
  average eigenvalue GAMMA=   0.8631
  1.9249  0.7091  0.4258  0.3928

 Free energy of the ion-electron system (eV)
  ---------------------------------------------------
  alpha Z        PSCENC =      2368.19626899
  Ewald energy   TEWEN  =    -62621.30894224
  -Hartree energ DENC   =    -42850.96806530
  -exchange      EXHF   =         0.00000000
  -V(xc)+E(xc)   XCENC  =      3286.41026599
  PAW double counting   =    112491.71485158  -116184.62913603
  entropy T*S    EENTRO =         0.00000000
  eigenvalues    EBANDS =    -10836.28805248
  atomic energy  EATOM  =    114020.06510763
  Solvation  Ediel_sol  =         0.00000000
  ---------------------------------------------------
  free energy    TOTEN  =      -326.80770186 eV

  energy without entropy =     -326.80770186  energy(sigma->0) =     -326.80770186


--------------------------------------------------------------------------------------------------------




--------------------------------------- Iteration      1(  10)  ---------------------------------------


    POTLOK:  cpu time    0.1216: real time    0.1226
    SETDIJ:  cpu time    0.0127: real time    0.0128
     EDDAV:  cpu time  167.8775: real time  169.0287
 BZINTS: Fermi energy:  5.032570;688.000000 electrons
         Band energy:***********;  BLOECHL correction:  0.000000
       DOS:  cpu time    0.0057: real time    0.0057
    CHARGE:  cpu time    1.4011: real time    1.4097
    MIXING:  cpu time    0.0015: real time    0.0015
    --------------------------------------------
      LOOP:  cpu time  169.4201: real time  170.5809

 eigenvalue-minimisations  : 24064
 total energy-change (2. order) :-0.1932698E-02  (-0.1599941E-01)
 number of electron     688.0000057 magnetization      -0.0000000
 augmentation part      282.1531249 magnetization      -0.0000000

 Broyden mixing:
  rms(total) = 0.15696E+00    rms(broyden)= 0.15696E+00
  rms(prec ) = 0.16262E+00
  weight for this iteration     100.00

 eigenvalues of (default mixing * dielectric matrix)
  average eigenvalue GAMMA=   0.9556
  1.8025  1.4727  0.6154  0.5573  0.3299

 Free energy of the ion-electron system (eV)
  ---------------------------------------------------
  alpha Z        PSCENC =      2368.19626899
  Ewald energy   TEWEN  =    -62621.30894224
  -Hartree energ DENC   =    -42866.63046668
  -exchange      EXHF   =         0.00000000
  -V(xc)+E(xc)   XCENC  =      3286.78700257
  PAW double counting   =    112446.92083875  -116140.80148316
  entropy T*S    EENTRO =         0.00000000
  eigenvalues    EBANDS =    -10820.03796040
  atomic energy  EATOM  =    114020.06510763
  Solvation  Ediel_sol  =         0.00000000
  ---------------------------------------------------
  free energy    TOTEN  =      -326.80963456 eV

  energy without entropy =     -326.80963456  energy(sigma->0) =     -326.80963456


--------------------------------------------------------------------------------------------------------




--------------------------------------- Iteration      1(  11)  ---------------------------------------


    POTLOK:  cpu time    0.1199: real time    0.1207
    SETDIJ:  cpu time    0.0129: real time    0.0129
     EDDAV:  cpu time  169.3559: real time  170.5140
 BZINTS: Fermi energy:  5.027201;688.000000 electrons
         Band energy:***********;  BLOECHL correction:  0.000000
       DOS:  cpu time    0.0057: real time    0.0057
    CHARGE:  cpu time    1.3863: real time    1.3948
    MIXING:  cpu time    0.0015: real time    0.0015
    --------------------------------------------
      LOOP:  cpu time  170.8821: real time  172.0496

 eigenvalue-minimisations  : 23552
 total energy-change (2. order) :-0.6104106E-02  (-0.5665881E-02)
 number of electron     688.0000057 magnetization      -0.0000000
 augmentation part      282.2506520 magnetization      -0.0000000

 Broyden mixing:
  rms(total) = 0.71336E-01    rms(broyden)= 0.71335E-01
  rms(prec ) = 0.73863E-01
  weight for this iteration     100.00

 eigenvalues of (default mixing * dielectric matrix)
  average eigenvalue GAMMA=   1.1015
  2.1304  2.1304  0.7894  0.6177  0.6177  0.3234

 Free energy of the ion-electron system (eV)
  ---------------------------------------------------
  alpha Z        PSCENC =      2368.19626899
  Ewald energy   TEWEN  =    -62621.30894224
  -Hartree energ DENC   =    -42858.19784156
  -exchange      EXHF   =         0.00000000
  -V(xc)+E(xc)   XCENC  =      3286.49374251
  PAW double counting   =    112329.24059493  -116021.06880362
  entropy T*S    EENTRO =         0.00000000
  eigenvalues    EBANDS =    -10830.23586530
  atomic energy  EATOM  =    114020.06510763
  Solvation  Ediel_sol  =         0.00000000
  ---------------------------------------------------
  free energy    TOTEN  =      -326.81573866 eV

  energy without entropy =     -326.81573866  energy(sigma->0) =     -326.81573866


--------------------------------------------------------------------------------------------------------




--------------------------------------- Iteration      1(  12)  ---------------------------------------


    POTLOK:  cpu time    0.1209: real time    0.1217
    SETDIJ:  cpu time    0.0128: real time    0.0128
     EDDAV:  cpu time  136.2775: real time  137.2382
 BZINTS: Fermi energy:  5.028837;688.000000 electrons
         Band energy:***********;  BLOECHL correction:  0.000000
       DOS:  cpu time    0.0057: real time    0.0057
    CHARGE:  cpu time    1.3897: real time    1.3996
    MIXING:  cpu time    0.0016: real time    0.0016
    --------------------------------------------
      LOOP:  cpu time  137.8082: real time  138.7796

 eigenvalue-minimisations  : 20480
 total energy-change (2. order) :-0.5338714E-02  (-0.1944267E-02)
 number of electron     688.0000057 magnetization      -0.0000000
 augmentation part      282.2504457 magnetization      -0.0000000

 Broyden mixing:
  rms(total) = 0.25695E-01    rms(broyden)= 0.25694E-01
  rms(prec ) = 0.27401E-01
  weight for this iteration     100.00

 eigenvalues of (default mixing * dielectric matrix)
  average eigenvalue GAMMA=   1.0931
  2.2078  2.2078  0.9820  0.3233  0.6159  0.6159  0.6989

 Free energy of the ion-electron system (eV)
  ---------------------------------------------------
  alpha Z        PSCENC =      2368.19626899
  Ewald energy   TEWEN  =    -62621.30894224
  -Hartree energ DENC   =    -42859.61624655
  -exchange      EXHF   =         0.00000000
  -V(xc)+E(xc)   XCENC  =      3286.54175662
  PAW double counting   =    112240.48906440  -115932.57540724
  entropy T*S    EENTRO =         0.00000000
  eigenvalues    EBANDS =    -10828.61267898
  atomic energy  EATOM  =    114020.06510763
  Solvation  Ediel_sol  =         0.00000000
  ---------------------------------------------------
  free energy    TOTEN  =      -326.82107738 eV

  energy without entropy =     -326.82107738  energy(sigma->0) =     -326.82107738


--------------------------------------------------------------------------------------------------------




--------------------------------------- Iteration      1(  13)  ---------------------------------------


    POTLOK:  cpu time    0.1187: real time    0.1222
    SETDIJ:  cpu time    0.0129: real time    0.0129
     EDDAV:  cpu time  129.2913: real time  130.2108
 BZINTS: Fermi energy:  5.028535;688.000000 electrons
         Band energy:***********;  BLOECHL correction:  0.000000
       DOS:  cpu time    0.0057: real time    0.0057
    CHARGE:  cpu time    1.3861: real time    1.3948
    MIXING:  cpu time    0.0017: real time    0.0017
    --------------------------------------------
      LOOP:  cpu time  130.8163: real time  131.7481

 eigenvalue-minimisations  : 19968
 total energy-change (2. order) :-0.7337903E-03  (-0.2202167E-03)
 number of electron     688.0000057 magnetization      -0.0000000
 augmentation part      282.2517526 magnetization      -0.0000000

 Broyden mixing:
  rms(total) = 0.16331E-01    rms(broyden)= 0.16331E-01
  rms(prec ) = 0.17237E-01
  weight for this iteration     100.00

 eigenvalues of (default mixing * dielectric matrix)
  average eigenvalue GAMMA=   1.1079
  2.2475  2.2475  1.0778  1.0778  0.3232  0.6075  0.6075  0.6745

 Free energy of the ion-electron system (eV)
  ---------------------------------------------------
  alpha Z        PSCENC =      2368.19626899
  Ewald energy   TEWEN  =    -62621.30894224
  -Hartree energ DENC   =    -42859.23658823
  -exchange      EXHF   =         0.00000000
  -V(xc)+E(xc)   XCENC  =      3286.54101504
  PAW double counting   =    112212.53881274  -115904.49188310
  entropy T*S    EENTRO =         0.00000000
  eigenvalues    EBANDS =    -10829.12560200
  atomic energy  EATOM  =    114020.06510763
  Solvation  Ediel_sol  =         0.00000000
  ---------------------------------------------------
  free energy    TOTEN  =      -326.82181117 eV

  energy without entropy =     -326.82181117  energy(sigma->0) =     -326.82181117


--------------------------------------------------------------------------------------------------------




--------------------------------------- Iteration      1(  14)  ---------------------------------------


    POTLOK:  cpu time    0.1170: real time    0.1211
    SETDIJ:  cpu time    0.0128: real time    0.0129
     EDDAV:  cpu time  166.2707: real time  167.4037
 BZINTS: Fermi energy:  5.028678;688.000000 electrons
         Band energy:***********;  BLOECHL correction:  0.000000
       DOS:  cpu time    0.0058: real time    0.0058
    CHARGE:  cpu time    1.3900: real time    1.3984
    MIXING:  cpu time    0.0017: real time    0.0017
    --------------------------------------------
      LOOP:  cpu time  167.7980: real time  168.9436

 eigenvalue-minimisations  : 23040
 total energy-change (2. order) :-0.4753306E-03  (-0.1256199E-03)
 number of electron     688.0000057 magnetization      -0.0000000
 augmentation part      282.2497445 magnetization      -0.0000000

 Broyden mixing:
  rms(total) = 0.82511E-02    rms(broyden)= 0.82507E-02
  rms(prec ) = 0.85772E-02
  weight for this iteration     100.00

 eigenvalues of (default mixing * dielectric matrix)
  average eigenvalue GAMMA=   1.1795
  2.4137  2.4137  1.4344  1.4344  0.3233  0.6026  0.6026  0.7215  0.6695

 Free energy of the ion-electron system (eV)
  ---------------------------------------------------
  alpha Z        PSCENC =      2368.19626899
  Ewald energy   TEWEN  =    -62621.30894224
  -Hartree energ DENC   =    -42859.54961503
  -exchange      EXHF   =         0.00000000
  -V(xc)+E(xc)   XCENC  =      3286.55480397
  PAW double counting   =    112196.71883364  -115888.85111806
  entropy T*S    EENTRO =         0.00000000
  eigenvalues    EBANDS =    -10828.64762539
  atomic energy  EATOM  =    114020.06510763
  Solvation  Ediel_sol  =         0.00000000
  ---------------------------------------------------
  free energy    TOTEN  =      -326.82228650 eV

  energy without entropy =     -326.82228650  energy(sigma->0) =     -326.82228650


--------------------------------------------------------------------------------------------------------




--------------------------------------- Iteration      1(  15)  ---------------------------------------


    POTLOK:  cpu time    0.1206: real time    0.1216
    SETDIJ:  cpu time    0.0128: real time    0.0129
     EDDAV:  cpu time  121.4605: real time  122.3346
 BZINTS: Fermi energy:  5.028701;688.000000 electrons
         Band energy:***********;  BLOECHL correction:  0.000000
       DOS:  cpu time    0.0057: real time    0.0057
    CHARGE:  cpu time    1.3887: real time    1.3972
    MIXING:  cpu time    0.0017: real time    0.0017
    --------------------------------------------
      LOOP:  cpu time  122.9900: real time  123.8737

 eigenvalue-minimisations  : 19200
 total energy-change (2. order) :-0.2246003E-03  (-0.5611676E-04)
 number of electron     688.0000057 magnetization       0.0000000
 augmentation part      282.2481131 magnetization       0.0000000

 Broyden mixing:
  rms(total) = 0.41014E-02    rms(broyden)= 0.41009E-02
  rms(prec ) = 0.43869E-02
  weight for this iteration     100.00

 eigenvalues of (default mixing * dielectric matrix)
  average eigenvalue GAMMA=   1.1840
  2.6162  2.3355  1.7539  1.1349  1.1349  0.3233  0.6046  0.6046  0.7044  0.6276

 Free energy of the ion-electron system (eV)
  ---------------------------------------------------
  alpha Z        PSCENC =      2368.19626899
  Ewald energy   TEWEN  =    -62621.30894224
  -Hartree energ DENC   =    -42859.56307180
  -exchange      EXHF   =         0.00000000
  -V(xc)+E(xc)   XCENC  =      3286.55285156
  PAW double counting   =    112190.15050837  -115882.26000445
  entropy T*S    EENTRO =         0.00000000
  eigenvalues    EBANDS =    -10828.65522915
  atomic energy  EATOM  =    114020.06510763
  Solvation  Ediel_sol  =         0.00000000
  ---------------------------------------------------
  free energy    TOTEN  =      -326.82251110 eV

  energy without entropy =     -326.82251110  energy(sigma->0) =     -326.82251110


--------------------------------------------------------------------------------------------------------




--------------------------------------- Iteration      1(  16)  ---------------------------------------


    POTLOK:  cpu time    0.1201: real time    0.1209
    SETDIJ:  cpu time    0.0127: real time    0.0128
     EDDAV:  cpu time  153.9799: real time  155.0450
 BZINTS: Fermi energy:  5.028686;688.000000 electrons
         Band energy:***********;  BLOECHL correction:  0.000000
       DOS:  cpu time    0.0057: real time    0.0057
    CHARGE:  cpu time    1.3855: real time    1.3948
    MIXING:  cpu time    0.0021: real time    0.0028
    --------------------------------------------
      LOOP:  cpu time  155.5060: real time  156.5820

 eigenvalue-minimisations  : 22272
 total energy-change (2. order) :-0.6969259E-04  (-0.1702364E-04)
 number of electron     688.0000057 magnetization       0.0000000
 augmentation part      282.2515342 magnetization       0.0000000

 Broyden mixing:
  rms(total) = 0.26768E-02    rms(broyden)= 0.26765E-02
  rms(prec ) = 0.28392E-02
  weight for this iteration     100.00

 eigenvalues of (default mixing * dielectric matrix)
  average eigenvalue GAMMA=   1.2378
  2.8773  2.1478  2.1478  1.3519  1.3519  0.3233  0.8843  0.6039  0.6039  0.7090
  0.6154

 Free energy of the ion-electron system (eV)
  ---------------------------------------------------
  alpha Z        PSCENC =      2368.19626899
  Ewald energy   TEWEN  =    -62621.30894224
  -Hartree energ DENC   =    -42859.41706102
  -exchange      EXHF   =         0.00000000
  -V(xc)+E(xc)   XCENC  =      3286.55290753
  PAW double counting   =    112188.53469752  -115880.62340884
  entropy T*S    EENTRO =         0.00000000
  eigenvalues    EBANDS =    -10828.82215036
  atomic energy  EATOM  =    114020.06510763
  Solvation  Ediel_sol  =         0.00000000
  ---------------------------------------------------
  free energy    TOTEN  =      -326.82258079 eV

  energy without entropy =     -326.82258079  energy(sigma->0) =     -326.82258079


--------------------------------------------------------------------------------------------------------




--------------------------------------- Iteration      1(  17)  ---------------------------------------


    POTLOK:  cpu time    0.1198: real time    0.1212
    SETDIJ:  cpu time    0.0127: real time    0.0127
     EDDAV:  cpu time  142.4326: real time  143.4246
 BZINTS: Fermi energy:  5.028752;688.000000 electrons
         Band energy:***********;  BLOECHL correction:  0.000000
       DOS:  cpu time    0.0057: real time    0.0058
    CHARGE:  cpu time    1.3860: real time    1.3950
    MIXING:  cpu time    0.0019: real time    0.0019
    --------------------------------------------
      LOOP:  cpu time  143.9588: real time  144.9613

 eigenvalue-minimisations  : 20992
 total energy-change (2. order) :-0.4415298E-04  (-0.1869953E-04)
 number of electron     688.0000057 magnetization       0.0000000
 augmentation part      282.2507552 magnetization       0.0000000

 Broyden mixing:
  rms(total) = 0.15407E-02    rms(broyden)= 0.15403E-02
  rms(prec ) = 0.16622E-02
  weight for this iteration     100.00

 eigenvalues of (default mixing * dielectric matrix)
  average eigenvalue GAMMA=   1.3431
  3.8613  2.3218  2.3218  1.5091  1.5091  0.3233  1.0065  0.6049  0.6049  0.7576
  0.6866  0.6105

 Free energy of the ion-electron system (eV)
  ---------------------------------------------------
  alpha Z        PSCENC =      2368.19626899
  Ewald energy   TEWEN  =    -62621.30894224
  -Hartree energ DENC   =    -42859.48423855
  -exchange      EXHF   =         0.00000000
  -V(xc)+E(xc)   XCENC  =      3286.55517664
  PAW double counting   =    112189.67426147  -115881.78520783
  entropy T*S    EENTRO =         0.00000000
  eigenvalues    EBANDS =    -10828.73505104
  atomic energy  EATOM  =    114020.06510763
  Solvation  Ediel_sol  =         0.00000000
  ---------------------------------------------------
  free energy    TOTEN  =      -326.82262494 eV

  energy without entropy =     -326.82262494  energy(sigma->0) =     -326.82262494


--------------------------------------------------------------------------------------------------------




--------------------------------------- Iteration      1(  18)  ---------------------------------------


    POTLOK:  cpu time    0.1204: real time    0.1215
    SETDIJ:  cpu time    0.0128: real time    0.0128
     EDDAV:  cpu time  144.8641: real time  145.8712
 BZINTS: Fermi energy:  5.028728;688.000000 electrons
         Band energy:***********;  BLOECHL correction:  0.000000
       DOS:  cpu time    0.0057: real time    0.0057
    CHARGE:  cpu time    1.3862: real time    1.3950
    MIXING:  cpu time    0.0019: real time    0.0019
    --------------------------------------------
      LOOP:  cpu time  146.3911: real time  147.4082

 eigenvalue-minimisations  : 20992
 total energy-change (2. order) :-0.1132728E-04  (-0.8081705E-05)
 number of electron     688.0000057 magnetization       0.0000000
 augmentation part      282.2505270 magnetization       0.0000000

 Broyden mixing:
  rms(total) = 0.64710E-03    rms(broyden)= 0.64662E-03
  rms(prec ) = 0.68649E-03
  weight for this iteration     100.00

 eigenvalues of (default mixing * dielectric matrix)
  average eigenvalue GAMMA=   1.3359
  4.2025  2.3746  2.3746  1.6372  1.1994  1.1994  0.3233  0.8355  0.7416  0.6061
  0.6061  0.6387  0.6273

 Free energy of the ion-electron system (eV)
  ---------------------------------------------------
  alpha Z        PSCENC =      2368.19626899
  Ewald energy   TEWEN  =    -62621.30894224
  -Hartree energ DENC   =    -42859.45372376
  -exchange      EXHF   =         0.00000000
  -V(xc)+E(xc)   XCENC  =      3286.55329459
  PAW double counting   =    112191.10866042  -115883.21145399
  entropy T*S    EENTRO =         0.00000000
  eigenvalues    EBANDS =    -10828.77184790
  atomic energy  EATOM  =    114020.06510763
  Solvation  Ediel_sol  =         0.00000000
  ---------------------------------------------------
  free energy    TOTEN  =      -326.82263627 eV

  energy without entropy =     -326.82263627  energy(sigma->0) =     -326.82263627


--------------------------------------------------------------------------------------------------------




--------------------------------------- Iteration      1(  19)  ---------------------------------------


    POTLOK:  cpu time    0.1202: real time    0.1209
    SETDIJ:  cpu time    0.0127: real time    0.0127
     EDDAV:  cpu time  135.2957: real time  136.2432
 BZINTS: Fermi energy:  5.028713;688.000000 electrons
         Band energy:***********;  BLOECHL correction:  0.000000
       DOS:  cpu time    0.0057: real time    0.0057
    CHARGE:  cpu time    1.3863: real time    1.3958
    MIXING:  cpu time    0.0021: real time    0.0021
    --------------------------------------------
      LOOP:  cpu time  136.8227: real time  137.7805

 eigenvalue-minimisations  : 20480
 total energy-change (2. order) :-0.1081877E-05  (-0.5298314E-06)
 number of electron     688.0000057 magnetization       0.0000000
 augmentation part      282.2506496 magnetization       0.0000000

 Broyden mixing:
[...]
   -.398E+02 0.405E+02 -.226E+01   0.406E+02 -.408E+02 0.228E+01   -.799E+00 0.252E+00 -.286E-01   -.606E-05 0.993E-05 0.942E-06
   -.398E+02 0.405E+02 -.226E+01   0.406E+02 -.408E+02 0.228E+01   -.799E+00 0.252E+00 -.286E-01   -.608E-05 0.993E-05 0.945E-06
   -.398E+02 0.405E+02 -.226E+01   0.406E+02 -.408E+02 0.228E+01   -.799E+00 0.252E+00 -.286E-01   -.606E-05 0.990E-05 0.942E-06
   -.398E+02 0.405E+02 -.226E+01   0.406E+02 -.408E+02 0.228E+01   -.799E+00 0.252E+00 -.286E-01   -.608E-05 0.990E-05 0.945E-06
   0.398E+02 0.405E+02 0.226E+01   -.406E+02 -.408E+02 -.228E+01   0.799E+00 0.252E+00 0.286E-01   0.607E-05 0.992E-05 -.943E-06
   0.398E+02 0.405E+02 0.226E+01   -.406E+02 -.408E+02 -.228E+01   0.799E+00 0.252E+00 0.286E-01   0.607E-05 0.992E-05 -.943E-06
   0.398E+02 0.405E+02 0.226E+01   -.406E+02 -.408E+02 -.228E+01   0.799E+00 0.252E+00 0.286E-01   0.607E-05 0.992E-05 -.944E-06
   0.398E+02 0.405E+02 0.226E+01   -.406E+02 -.408E+02 -.228E+01   0.799E+00 0.252E+00 0.286E-01   0.607E-05 0.992E-05 -.944E-06
   -.604E-08 -.161E+02 -.113E-06   -.604E-13 0.167E+02 0.320E-13   0.931E-24 -.652E+00 -.207E-24   -.400E-09 0.949E-06 -.108E-08
   -.604E-08 -.161E+02 -.113E-06   -.178E-13 0.167E+02 0.101E-12   -.213E-23 -.652E+00 0.724E-24   0.395E-09 0.949E-06 0.108E-08
   -.604E-08 -.161E+02 -.113E-06   -.711E-13 0.167E+02 0.568E-13   0.101E-23 -.652E+00 0.827E-24   -.400E-09 0.921E-06 -.108E-08
   -.604E-08 -.161E+02 -.113E-06   -.497E-13 0.167E+02 0.533E-13   0.769E-24 -.652E+00 0.103E-24   0.395E-09 0.921E-06 0.108E-08
   -.352E-07 0.705E+02 -.202E-06   -.302E-13 -.716E+02 0.462E-13   0.130E-23 0.105E+01 -.103E-24   0.131E-07 0.226E-04 -.716E-09
   -.352E-07 0.705E+02 -.202E-06   -.178E-13 -.716E+02 -.320E-13   0.945E-24 0.105E+01 -.258E-24   -.131E-07 0.226E-04 0.712E-09
   -.352E-07 0.705E+02 -.202E-06   -.284E-13 -.716E+02 0.213E-13   0.136E-24 0.105E+01 0.724E-24   0.131E-07 0.226E-04 -.716E-09
   -.352E-07 0.705E+02 -.202E-06   -.284E-13 -.716E+02 0.000E+00   -.156E-23 0.105E+01 -.109E-23   -.131E-07 0.226E-04 0.712E-09
   0.559E+01 -.366E+02 0.547E+01   -.554E+01 0.352E+02 -.560E+01   -.448E-01 0.144E+01 0.114E+00   -.216E-05 0.691E-05 -.460E-06
   0.559E+01 -.366E+02 0.547E+01   -.554E+01 0.352E+02 -.560E+01   -.448E-01 0.144E+01 0.114E+00   -.221E-05 0.691E-05 -.458E-06
   0.559E+01 -.366E+02 0.547E+01   -.554E+01 0.352E+02 -.560E+01   -.448E-01 0.144E+01 0.114E+00   -.216E-05 0.685E-05 -.458E-06
   0.559E+01 -.366E+02 0.547E+01   -.554E+01 0.352E+02 -.560E+01   -.448E-01 0.144E+01 0.114E+00   -.221E-05 0.685E-05 -.456E-06
   -.559E+01 -.366E+02 -.547E+01   0.554E+01 0.352E+02 0.560E+01   0.448E-01 0.144E+01 -.114E+00   0.221E-05 0.691E-05 0.457E-06
   -.559E+01 -.366E+02 -.547E+01   0.554E+01 0.352E+02 0.560E+01   0.448E-01 0.144E+01 -.114E+00   0.216E-05 0.691E-05 0.461E-06
   -.559E+01 -.366E+02 -.547E+01   0.554E+01 0.352E+02 0.560E+01   0.448E-01 0.144E+01 -.114E+00   0.221E-05 0.685E-05 0.455E-06
   -.559E+01 -.366E+02 -.547E+01   0.554E+01 0.352E+02 0.560E+01   0.448E-01 0.144E+01 -.114E+00   0.216E-05 0.685E-05 0.459E-06
   0.559E+01 -.366E+02 0.547E+01   -.554E+01 0.352E+02 -.560E+01   -.448E-01 0.144E+01 0.114E+00   -.215E-05 0.691E-05 -.458E-06
   0.559E+01 -.366E+02 0.547E+01   -.554E+01 0.352E+02 -.560E+01   -.448E-01 0.144E+01 0.114E+00   -.222E-05 0.691E-05 -.460E-06
   0.559E+01 -.366E+02 0.547E+01   -.554E+01 0.352E+02 -.560E+01   -.448E-01 0.144E+01 0.114E+00   -.215E-05 0.685E-05 -.455E-06
   0.559E+01 -.366E+02 0.547E+01   -.554E+01 0.352E+02 -.560E+01   -.448E-01 0.144E+01 0.114E+00   -.222E-05 0.685E-05 -.458E-06
   -.559E+01 -.366E+02 -.547E+01   0.554E+01 0.352E+02 0.560E+01   0.448E-01 0.144E+01 -.114E+00   0.221E-05 0.691E-05 0.454E-06
   -.559E+01 -.366E+02 -.547E+01   0.554E+01 0.352E+02 0.560E+01   0.448E-01 0.144E+01 -.114E+00   0.216E-05 0.691E-05 0.464E-06
   -.559E+01 -.366E+02 -.547E+01   0.554E+01 0.352E+02 0.560E+01   0.448E-01 0.144E+01 -.114E+00   0.221E-05 0.685E-05 0.452E-06
   -.559E+01 -.366E+02 -.547E+01   0.554E+01 0.352E+02 0.560E+01   0.448E-01 0.144E+01 -.114E+00   0.216E-05 0.685E-05 0.461E-06
   -.104E+02 -.349E+02 0.707E+01   0.102E+02 0.330E+02 -.723E+01   0.157E+00 0.187E+01 0.132E+00   0.653E-05 0.649E-05 0.117E-04
   -.104E+02 -.349E+02 0.707E+01   0.102E+02 0.330E+02 -.723E+01   0.157E+00 0.187E+01 0.132E+00   0.648E-05 0.649E-05 0.117E-04
   -.104E+02 -.349E+02 0.707E+01   0.102E+02 0.330E+02 -.723E+01   0.157E+00 0.187E+01 0.132E+00   0.653E-05 0.644E-05 0.117E-04
   -.104E+02 -.349E+02 0.707E+01   0.102E+02 0.330E+02 -.723E+01   0.157E+00 0.187E+01 0.132E+00   0.648E-05 0.644E-05 0.117E-04
   0.104E+02 -.349E+02 -.707E+01   -.102E+02 0.330E+02 0.723E+01   -.157E+00 0.187E+01 -.132E+00   -.648E-05 0.649E-05 -.117E-04
   0.104E+02 -.349E+02 -.707E+01   -.102E+02 0.330E+02 0.723E+01   -.157E+00 0.187E+01 -.132E+00   -.653E-05 0.649E-05 -.117E-04
   0.104E+02 -.349E+02 -.707E+01   -.102E+02 0.330E+02 0.723E+01   -.157E+00 0.187E+01 -.132E+00   -.648E-05 0.644E-05 -.117E-04
   0.104E+02 -.349E+02 -.707E+01   -.102E+02 0.330E+02 0.723E+01   -.157E+00 0.187E+01 -.132E+00   -.653E-05 0.644E-05 -.117E-04
   -.104E+02 -.349E+02 0.707E+01   0.102E+02 0.330E+02 -.723E+01   0.157E+00 0.187E+01 0.132E+00   0.653E-05 0.649E-05 0.117E-04
   -.104E+02 -.349E+02 0.707E+01   0.102E+02 0.330E+02 -.723E+01   0.157E+00 0.187E+01 0.132E+00   0.648E-05 0.649E-05 0.117E-04
   -.104E+02 -.349E+02 0.707E+01   0.102E+02 0.330E+02 -.723E+01   0.157E+00 0.187E+01 0.132E+00   0.653E-05 0.644E-05 0.116E-04
   -.104E+02 -.349E+02 0.707E+01   0.102E+02 0.330E+02 -.723E+01   0.157E+00 0.187E+01 0.132E+00   0.648E-05 0.644E-05 0.117E-04
   0.104E+02 -.349E+02 -.707E+01   -.102E+02 0.330E+02 0.723E+01   -.157E+00 0.187E+01 -.132E+00   -.648E-05 0.649E-05 -.117E-04
   0.104E+02 -.349E+02 -.707E+01   -.102E+02 0.330E+02 0.723E+01   -.157E+00 0.187E+01 -.132E+00   -.653E-05 0.649E-05 -.117E-04
   0.104E+02 -.349E+02 -.707E+01   -.102E+02 0.330E+02 0.723E+01   -.157E+00 0.187E+01 -.132E+00   -.648E-05 0.644E-05 -.117E-04
   0.104E+02 -.349E+02 -.707E+01   -.102E+02 0.330E+02 0.723E+01   -.157E+00 0.187E+01 -.132E+00   -.653E-05 0.644E-05 -.117E-04
 -----------------------------------------------------------------------------------------------
   0.563E-05 -.602E+02 0.190E-03   0.213E-12 0.156E-12 -.927E-12   0.527E-15 0.602E+02 -.194E-15   0.458E-11 0.561E-03 0.139E-10
 
 
 POSITION                                       TOTAL-FORCE (eV/Angst)
 -----------------------------------------------------------------------------------
      1.40049      1.24064      1.38239         0.000556     -0.017954      0.003590
      6.64711      1.24064      1.67116         0.000556     -0.017954      0.003590
      1.40049      6.50767      1.38239         0.000556     -0.017954      0.003590
      6.64711      6.50767      1.67116         0.000556     -0.017954      0.003590
      3.98908      3.87415      1.50349        -0.000556     -0.017954     -0.003590
      9.23570      3.87415      1.79226        -0.000556     -0.017954     -0.003590
      3.98908      9.14119      1.50349        -0.000556     -0.017954     -0.003590
      9.23570      9.14119      1.79226        -0.000556     -0.017954     -0.003590
      1.81196      3.90001      9.16203        -0.000000     -0.010363      0.000000
      7.05858      3.90001      9.45081        -0.000000     -0.010363      0.000000
      1.81196      9.16704      9.16203        -0.000000     -0.010363      0.000000
      7.05858      9.16704      9.45081        -0.000000     -0.010363      0.000000
      4.43527      1.27938      9.30642        -0.000000     -0.007924      0.000000
      9.68189      1.27938      9.59519        -0.000000     -0.007924      0.000000
      4.43527      6.54641      9.30642        -0.000000     -0.007924      0.000000
      9.68189      6.54641      9.59519        -0.000000     -0.007924      0.000000
      1.65166      1.24064      6.55329        -0.000556     -0.017954     -0.003590
      6.89828      1.24064      6.84207        -0.000556     -0.017954     -0.003590
      1.65166      6.50767      6.55329        -0.000556     -0.017954     -0.003590
      6.89828      6.50767      6.84207        -0.000556     -0.017954     -0.003590
      4.30968      3.87415      6.72097         0.000556     -0.017954      0.003590
      9.55630      3.87415      7.00974         0.000556     -0.017954      0.003590
      4.30968      9.14119      6.72097         0.000556     -0.017954      0.003590
      9.55630      9.14119      7.00974         0.000556     -0.017954      0.003590
      4.14938      1.26649      4.11223        -0.000000     -0.010363      0.000000
      9.39600      1.26649      4.40100        -0.000000     -0.010363      0.000000
      4.14938      6.53352      4.11223        -0.000000     -0.010363      0.000000
      9.39600      6.53352      4.40100        -0.000000     -0.010363      0.000000
      1.52607      3.91290      3.96784        -0.000000     -0.007924      0.000000
      6.77269      3.91290      4.25661        -0.000000     -0.007924      0.000000
      1.52607      9.17993      3.96784        -0.000000     -0.007924      0.000000
      6.77269      9.17993      4.25661        -0.000000     -0.007924      0.000000
     10.74818      0.06024      5.77031         0.005750      0.013365     -0.010325
      5.50156      0.06024      5.48153         0.005750      0.013365     -0.010325
     10.74818      5.32728      5.77031         0.005750      0.013365     -0.010325
      5.50156      5.32728      5.48153         0.005750      0.013365     -0.010325
      2.79721      0.06024      2.74292        -0.005750      0.013365      0.010325
      8.04383      0.06024      3.03169        -0.005750      0.013365      0.010325
      2.79721      5.32728      2.74292        -0.005750      0.013365      0.010325
      8.04383      5.32728      3.03169        -0.005750      0.013365      0.010325
      2.59236      2.69376      0.14295         0.005750      0.013365     -0.010325
      7.83898      2.69376      0.43173         0.005750      0.013365     -0.010325
      2.59236      7.96079      0.14295         0.005750      0.013365     -0.010325
      7.83898      7.96079      0.43173         0.005750      0.013365     -0.010325
      0.45978      2.69376      7.79272        -0.005750      0.013365      0.010325
      5.70640      2.69376      8.08150        -0.005750      0.013365      0.010325
      0.45978      7.96079      7.79272        -0.005750      0.013365      0.010325
      5.70640      7.96079      8.08150        -0.005750      0.013365      0.010325
     10.47460      0.05970      0.58927         0.010164      0.013732     -0.026066
      5.22798      0.05970      0.30050         0.010164      0.013732     -0.026066
     10.47460      5.32673      0.58927         0.010164      0.013732     -0.026066
      5.22798      5.32673      0.30050         0.010164      0.013732     -0.026066
      3.07078      0.05970      7.92395        -0.010164      0.013732      0.026066
      8.31740      0.05970      8.21273        -0.010164      0.013732      0.026066
      3.07078      5.32673      7.92395        -0.010164      0.013732      0.026066
      8.31740      5.32673      8.21273        -0.010164      0.013732      0.026066
      2.89056      2.69321      5.35030         0.010164      0.013732     -0.026066
      8.13718      2.69321      5.63908         0.010164      0.013732     -0.026066
      2.89056      7.96024      5.35030         0.010164      0.013732     -0.026066
      8.13718      7.96024      5.63908         0.010164      0.013732     -0.026066
      0.16158      2.69321      2.58537        -0.010164      0.013732      0.026066
      5.40820      2.69321      2.87415        -0.010164      0.013732      0.026066
      0.16158      7.96024      2.58537        -0.010164      0.013732      0.026066
      5.40820      7.96024      2.87415        -0.010164      0.013732      0.026066
 -----------------------------------------------------------------------------------
    total drift:                                0.000006     -0.022075      0.000190


--------------------------------------------------------------------------------------------------------



  FREE ENERGIE OF THE ION-ELECTRON SYSTEM (eV)
  ---------------------------------------------------
  free  energy   TOTEN  =      -326.82263812 eV

  energy  without entropy=     -326.82263812  energy(sigma->0) =     -326.82263812
 


--------------------------------------------------------------------------------------------------------


    POTLOK:  cpu time    0.1298: real time    0.1304


--------------------------------------------------------------------------------------------------------


 writing wavefunctions
     LOOP+:  cpu time 3703.2054: real time 3729.9746
    4ORBIT:  cpu time    0.0000: real time    0.0000
 


 total charge     
 
# of ion       s       p       d       tot
------------------------------------------
    1        1.315   2.407   0.000   3.722
    2        1.315   2.407   0.000   3.722
    3        1.315   2.407   0.000   3.722
    4        1.315   2.407   0.000   3.722
    5        1.315   2.407   0.000   3.722
    6        1.315   2.407   0.000   3.722
    7        1.315   2.407   0.000   3.722
    8        1.315   2.407   0.000   3.722
    9        1.317   2.400   0.000   3.717
   10        1.317   2.400   0.000   3.717
   11        1.317   2.400   0.000   3.717
   12        1.317   2.400   0.000   3.717
   13        1.313   2.411   0.000   3.724
   14        1.313   2.411   0.000   3.724
   15        1.313   2.411   0.000   3.724
   16        1.313   2.411   0.000   3.724
   17        1.315   2.407   0.000   3.722
   18        1.315   2.407   0.000   3.722
   19        1.315   2.407   0.000   3.722
   20        1.315   2.407   0.000   3.722
   21        1.315   2.407   0.000   3.722
   22        1.315   2.407   0.000   3.722
   23        1.315   2.407   0.000   3.722
   24        1.315   2.407   0.000   3.722
   25        1.317   2.400   0.000   3.717
   26        1.317   2.400   0.000   3.717
   27        1.317   2.400   0.000   3.717
   28        1.317   2.400   0.000   3.717
   29        1.313   2.411   0.000   3.724
   30        1.313   2.411   0.000   3.724
   31        1.313   2.411   0.000   3.724
   32        1.313   2.411   0.000   3.724
   33        0.258   6.201   8.917  15.376
   34        0.258   6.201   8.917  15.376
   35        0.258   6.201   8.917  15.376
   36        0.258   6.201   8.917  15.376
   37        0.258   6.201   8.917  15.376
   38        0.258   6.201   8.917  15.376
   39        0.258   6.201   8.917  15.376
   40        0.258   6.201   8.917  15.376
   41        0.258   6.201   8.917  15.376
   42        0.258   6.201   8.917  15.376
   43        0.258   6.201   8.917  15.376
   44        0.258   6.201   8.917  15.376
   45        0.258   6.201   8.917  15.376
   46        0.258   6.201   8.917  15.376
   47        0.258   6.201   8.917  15.376
   48        0.258   6.201   8.917  15.376
   49        0.348   6.348   5.825  12.520
   50        0.348   6.348   5.825  12.520
   51        0.348   6.348   5.825  12.520
   52        0.348   6.348   5.825  12.520
   53        0.348   6.348   5.825  12.520
   54        0.348   6.348   5.825  12.520
   55        0.348   6.348   5.825  12.520
   56        0.348   6.348   5.825  12.520
   57        0.348   6.348   5.825  12.520
   58        0.348   6.348   5.825  12.520
   59        0.348   6.348   5.825  12.520
   60        0.348   6.348   5.825  12.520
   61        0.348   6.348   5.825  12.520
   62        0.348   6.348   5.825  12.520
   63        0.348   6.348   5.825  12.520
   64        0.348   6.348   5.825  12.520
--------------------------------------------------
tot         51.769 277.763 235.864 565.396
 


 magnetization (x)
 
# of ion       s       p       d       tot
------------------------------------------
    1       -0.000  -0.027   0.000  -0.027
    2       -0.000  -0.027   0.000  -0.027
    3       -0.000  -0.027   0.000  -0.027
    4       -0.000  -0.027   0.000  -0.027
    5        0.000   0.027   0.000   0.027
    6        0.000   0.027   0.000   0.027
    7        0.000   0.027   0.000   0.027
    8        0.000   0.027   0.000   0.027
    9        0.000   0.000   0.000   0.000
   10        0.000  -0.000   0.000  -0.000
   11        0.000   0.000   0.000   0.000
   12        0.000  -0.000   0.000  -0.000
   13       -0.000   0.000   0.000   0.000
   14       -0.000   0.000   0.000   0.000
   15       -0.000   0.000   0.000   0.000
   16       -0.000   0.000   0.000   0.000
   17        0.000   0.027   0.000   0.027
   18        0.000   0.027   0.000   0.027
   19        0.000   0.027   0.000   0.027
   20        0.000   0.027   0.000   0.027
   21       -0.000  -0.027   0.000  -0.027
   22       -0.000  -0.027   0.000  -0.027
   23       -0.000  -0.027   0.000  -0.027
   24       -0.000  -0.027   0.000  -0.027
   25        0.000  -0.000   0.000  -0.000
   26        0.000  -0.000   0.000  -0.000
   27        0.000  -0.000   0.000  -0.000
   28        0.000  -0.000   0.000  -0.000
   29        0.000  -0.000   0.000  -0.000
   30       -0.000   0.000   0.000   0.000
   31       -0.000  -0.000   0.000  -0.000
   32       -0.000   0.000   0.000   0.000
   33        0.000   0.001  -0.004  -0.003
   34        0.000   0.001  -0.004  -0.003
   35        0.000   0.001  -0.004  -0.003
   36        0.000   0.001  -0.004  -0.003
   37       -0.000  -0.001   0.004   0.003
   38       -0.000  -0.001   0.004   0.003
   39       -0.000  -0.001   0.004   0.003
   40       -0.000  -0.001   0.004   0.003
   41        0.000   0.001  -0.004  -0.003
   42        0.000   0.001  -0.004  -0.003
   43        0.000   0.001  -0.004  -0.003
   44        0.000   0.001  -0.004  -0.003
   45       -0.000  -0.001   0.004   0.003
   46       -0.000  -0.001   0.004   0.003
   47       -0.000  -0.001   0.004   0.003
   48       -0.000  -0.001   0.004   0.003
   49        0.020   0.054   3.664   3.737
   50        0.020   0.054   3.664   3.737
   51        0.020   0.054   3.664   3.737
   52        0.020   0.054   3.664   3.737
   53       -0.020  -0.054  -3.664  -3.737
   54       -0.020  -0.054  -3.664  -3.737
   55       -0.020  -0.054  -3.664  -3.737
   56       -0.020  -0.054  -3.664  -3.737
   57        0.020   0.054   3.664   3.737
   58        0.020   0.054   3.664   3.737
   59        0.020   0.054   3.664   3.737
   60        0.020   0.054   3.664   3.737
   61       -0.020  -0.054  -3.664  -3.737
   62       -0.020  -0.054  -3.664  -3.737
   63       -0.020  -0.054  -3.664  -3.737
   64       -0.020  -0.054  -3.664  -3.737
--------------------------------------------------
tot         -0.000   0.000  -0.000  -0.000
 
 BZINTS: Fermi energy:  5.028692;688.000000 electrons
         Band energy:***********;  BLOECHL correction:  0.000000

 total amount of memory used by VASP MPI-rank0   348353. kBytes
=======================================================================

   base      :      30000. kBytes
   nonl-proj :     216760. kBytes
   fftplans  :       4588. kBytes
   grid      :      69719. kBytes
   one-center:       1990. kBytes
   wavefun   :      25296. kBytes
 
  
  
 General timing and accounting informations for this job:
 ========================================================
  
                  Total CPU time used (sec):     3761.913
                            User time (sec):     3750.970
                          System time (sec):       10.943
                         Elapsed time (sec):     3790.818
  
                   Maximum memory used (kb):      727536.
                   Average memory used (kb):           0.
  
                          Minor page faults:       334951
                          Major page faults:         5840
                 Voluntary context switches:         7237
