 vasp.5.4.4.18Apr17-6-g9f103f2a35 (build Oct 30 2023 17:30:16) complex          
  
 executed on             LinuxIFC date 2024.06.21  00:17:16
 running on  256 total cores
 distrk:  each k-point on  256 cores,    1 groups
 distr:  one band on NCORES_PER_BAND=   1 cores,  256 groups


--------------------------------------------------------------------------------------------------------


 INCAR:
 POTCAR:    PAW_PBE S 06Sep2000                   
 POTCAR:     PAW_PBE Cu_pv 06Sep2000              
 POTCAR:     PAW_PBE Fe_pv 02Aug2007              

 ----------------------------------------------------------------------------- 
|                                                                             |
|           W    W    AA    RRRRR   N    N  II  N    N   GGGG   !!!           |
|           W    W   A  A   R    R  NN   N  II  NN   N  G    G  !!!           |
|           W    W  A    A  R    R  N N  N  II  N N  N  G       !!!           |
|           W WW W  AAAAAA  RRRRR   N  N N  II  N  N N  G  GGG   !            |
|           WW  WW  A    A  R   R   N   NN  II  N   NN  G    G                |
|           W    W  A    A  R    R  N    N  II  N    N   GGGG   !!!           |
|                                                                             |
|      For optimal performance we recommend to set                            |
|        NCORE= 4 - approx SQRT( number of cores)                             |
|      NCORE specifies how many cores store one orbital (NPAR=cpu/NCORE).     |
|      This setting can  greatly improve the performance of VASP for DFT.     |
|      The default,   NCORE=1            might be grossly inefficient         |
|      on modern multi-core architectures or massively parallel machines.     |
|      Do your own testing !!!!                                               |
|      Unfortunately you need to use the default for GW and RPA calculations. |
|      (for HF NCORE is supported but not extensively tested yet)             |
|                                                                             |
 ----------------------------------------------------------------------------- 

 POTCAR:    PAW_PBE S 06Sep2000                   
   SHA256 =  0fc7481fb0695f01bdc6462160264c5c84044ae9ec85a907d398b887a2bc3132 S/
   COPYR  = (c) Copyright 06Sep2000 Georg Kresse                                
   COPYR  = This file is part of the software VASP. Any use, copying, and all ot
   COPYR  = If you do not have a valid VASP license, you may not use, copy or di
   VRHFIN =S : s2p4                                                             
   LEXCH  = PE                                                                  
   EATOM  =   276.8230 eV,   20.3459 Ry                                         
                                                                                
   TITEL  = PAW_PBE S 06Sep2000                                                 
   LULTRA =        F    use ultrasoft PP ?                                      
   IUNSCR =        1    unscreen: 0-lin 1-nonlin 2-no                           
   RPACOR =    1.500    partial core radius                                     
   POMASS =   32.066; ZVAL   =    6.000    mass and valenz                      
   RCORE  =    1.900    outmost cutoff radius                                   
   RWIGS  =    2.200; RWIGS  =    1.164    wigner-seitz radius (au A)           
   ENMAX  =  258.689; ENMIN  =  194.016 eV                                      
   ICORE  =        2    local potential                                         
   LCOR   =        T    correct aug charges                                     
   LPAW   =        T    paw PP                                                  
   EAUG   =  335.092                                                            
   DEXC   =    0.000                                                            
   RMAX   =    1.942    core radius for proj-oper                               
   RAUG   =    1.300    factor for augmentation sphere                          
   RDEP   =    1.954    radius for radial grids                                 
   RDEPT  =    1.744    core radius for aug-charge                              
                                                                                
   Atomic configuration                                                         
    6 entries                                                                   
     n  l   j            E        occ.                                          
     1  0  0.50     -2405.8406   2.0000                                         
     2  0  0.50      -211.7007   2.0000                                         
     2  1  1.50      -156.4958   6.0000                                         
     3  0  0.50       -17.2562   2.0000                                         
     3  1  0.50        -7.0085   4.0000                                         
     3  2  1.50        -6.8029   0.0000                                         
   Description                                                                  
     l       E           TYP  RCUT    TYP  RCUT                                 
     0    -17.2561641     23  1.900                                             
     0    -15.8743224     23  1.900                                             
     1     -7.0085400     23  1.900                                             
     1     -2.7779785     23  1.900                                             
     2     -6.8029130     23  1.900                                             
  local pseudopotential read in
  partial core-charges read in
  partial kinetic energy density read in
  atomic valenz-charges read in
  non local Contribution for L=           0  read in
    real space projection operators read in
  non local Contribution for L=           0  read in
    real space projection operators read in
  non local Contribution for L=           1  read in
    real space projection operators read in
  non local Contribution for L=           1  read in
    real space projection operators read in
    PAW grid and wavefunctions read in
 
   number of l-projection  operators is LMAX  =           4
   number of lm-projection operators is LMMAX =           8
 
 POTCAR:     PAW_PBE Cu_pv 06Sep2000              
   SHA256 =  cb7b504e2ea725fe1f25c85a9ac77d4012ce94cd394135b722c4e25ec297f1cb Cu
   COPYR  = (c) Copyright 06Sep2000 Georg Kresse                                
   COPYR  = This file is part of the software VASP. Any use, copying, and all ot
   COPYR  = If you do not have a valid VASP license, you may not use, copy or di
   VRHFIN =Cu: d10 p1                                                           
   LEXCH  = PE                                                                  
   EATOM  =  4120.1201 eV,  302.8203 Ry                                         
                                                                                
   TITEL  = PAW_PBE Cu_pv 06Sep2000                                             
   LULTRA =        F    use ultrasoft PP ?                                      
   IUNSCR =        1    unscreen: 0-lin 1-nonlin 2-no                           
   RPACOR =    1.500    partial core radius                                     
   POMASS =   63.546; ZVAL   =   17.000    mass and valenz                      
   RCORE  =    2.000    outmost cutoff radius                                   
   RWIGS  =    2.000; RWIGS  =    1.058    wigner-seitz radius (au A)           
   ENMAX  =  368.648; ENMIN  =  276.486 eV                                      
   RCLOC  =    1.304    cutoff for local pot                                    
   LCOR   =        T    correct aug charges                                     
   LPAW   =        T    paw PP                                                  
   EAUG   =  758.233                                                            
   DEXC   =    0.000                                                            
   RMAX   =    2.046    core radius for proj-oper                               
   RAUG   =    1.300    factor for augmentation sphere                          
   RDEP   =    2.025    radius for radial grids                                 
   RDEPT  =    1.558    core radius for aug-charge                              
                                                                                
   Atomic configuration                                                         
    8 entries                                                                   
     n  l   j            E        occ.                                          
     1  0  0.50     -8850.2467   2.0000                                         
     2  0  0.50     -1062.3498   2.0000                                         
     2  1  1.50      -916.8226   6.0000                                         
     3  0  0.50      -114.6929   2.0000                                         
     3  1  1.50       -72.1325   6.0000                                         
     3  2  2.50        -5.0394  10.0000                                         
     4  0  0.50        -4.6097   1.0000                                         
     4  3  2.50        -1.3606   0.0000                                         
   Description                                                                  
     l       E           TYP  RCUT    TYP  RCUT                                 
     1    -72.1324777     23  1.700                                             
     1     -1.3605826     23  1.700                                             
     2     -5.0393776     23  2.000                                             
     2     -6.3999602     23  2.000                                             
     0     -4.6097062     23  1.800                                             
     0     14.1620818     23  1.800                                             
  local pseudopotential read in
  partial core-charges read in
  partial kinetic energy density read in
  atomic valenz-charges read in
  non local Contribution for L=           1  read in
    real space projection operators read in
  non local Contribution for L=           1  read in
    real space projection operators read in
  non local Contribution for L=           2  read in
    real space projection operators read in
  non local Contribution for L=           2  read in
    real space projection operators read in
  non local Contribution for L=           0  read in
    real space projection operators read in
  non local Contribution for L=           0  read in
    real space projection operators read in
    PAW grid and wavefunctions read in
 
   number of l-projection  operators is LMAX  =           6
   number of lm-projection operators is LMMAX =          18
 
 POTCAR:     PAW_PBE Fe_pv 02Aug2007              
   SHA256 =  5d22e414b1f82158bf2c7ecb8b97b28fd0923e48cadc1c3bf74d524558f5dd32 Fe
   COPYR  = (c) Copyright 02Aug2007 Georg Kresse                                
   COPYR  = This file is part of the software VASP. Any use, copying, and all ot
   COPYR  = If you do not have a valid VASP license, you may not use, copy or di
   VRHFIN =Fe:  3pd7s1                                                          
   LEXCH  = PE                                                                  
   EATOM  =  2457.4239 eV,  180.6156 Ry                                         
                                                                                
   TITEL  = PAW_PBE Fe_pv 02Aug2007                                             
   LULTRA =        F    use ultrasoft PP ?                                      
   IUNSCR =        1    unscreen: 0-lin 1-nonlin 2-no                           
   RPACOR =    1.750    partial core radius                                     
   POMASS =   55.847; ZVAL   =   14.000    mass and valenz                      
   RCORE  =    2.200    outmost cutoff radius                                   
   RWIGS  =    2.200; RWIGS  =    1.164    wigner-seitz radius (au A)           
   ENMAX  =  293.238; ENMIN  =  219.928 eV                                      
   ICORE  =        3    local potential                                         
   LCOR   =        T    correct aug charges                                     
   LPAW   =        T    paw PP                                                  
   EAUG   =  578.342                                                            
   DEXC   =    0.000                                                            
   RMAX   =    2.249    core radius for proj-oper                               
   RAUG   =    1.300    factor for augmentation sphere                          
   RDEP   =    2.296    radius for radial grids                                 
   RDEPT  =    1.766    core radius for aug-charge                              
                                                                                
   Atomic configuration                                                         
    8 entries                                                                   
     n  l   j            E        occ.                                          
     1  0  0.50     -6993.8440   2.0000                                         
     2  0  0.50      -814.6047   2.0000                                         
     2  1  1.50      -693.3689   6.0000                                         
     3  0  0.50       -89.4732   2.0000                                         
     3  1  1.50       -55.6373   6.0000                                         
     3  2  2.50        -3.8151   7.0000                                         
     4  0  0.50        -4.2551   1.0000                                         
     4  3  2.50        -1.3606   0.0000                                         
   Description                                                                  
     l       E           TYP  RCUT    TYP  RCUT                                 
     1    -55.6372668     23  2.000                                             
     1     -5.4423304     23  2.000                                             
     2     -3.8151096     23  2.200                                             
     2     -5.1756922     23  2.200                                             
     0     -4.2550951     23  2.200                                             
     0     27.2116520     23  2.200                                             
     3     -1.3605826     23  2.200                                             
  local pseudopotential read in
  partial core-charges read in
  partial kinetic energy density read in
  atomic valenz-charges read in
  non local Contribution for L=           1  read in
    real space projection operators read in
  non local Contribution for L=           1  read in
    real space projection operators read in
  non local Contribution for L=           2  read in
    real space projection operators read in
  non local Contribution for L=           2  read in
    real space projection operators read in
  non local Contribution for L=           0  read in
    real space projection operators read in
  non local Contribution for L=           0  read in
    real space projection operators read in
    PAW grid and wavefunctions read in
 
   number of l-projection  operators is LMAX  =           6
   number of lm-projection operators is LMMAX =          18
 

 ----------------------------------------------------------------------------- 
|                                                                             |
|  ADVICE TO THIS USER RUNNING 'VASP/VAMP'   (HEAR YOUR MASTER'S VOICE ...):  |
|                                                                             |
|      You have a (more or less) 'large supercell' and for larger cells       |
|      it might be more efficient to use real space projection opertators     |
|      So try LREAL= Auto  in the INCAR   file.                               |
|      Mind:          For very  accurate calculation you might also keep the  |
|      reciprocal projection scheme          (i.e. LREAL=.FALSE.)             |
|                                                                             |
 ----------------------------------------------------------------------------- 


 ----------------------------------------------------------------------------- 
|                                                                             |
|  ADVICE TO THIS USER RUNNING 'VASP/VAMP'   (HEAR YOUR MASTER'S VOICE ...):  |
|                                                                             |
|      You enforced a specific xc-type in the INCAR file,                     |
|      a different type was found on the POTCAR file                          |
|          I HOPE YOU KNOW, WHAT YOU ARE  DOING                               |
|                                                                             |
 ----------------------------------------------------------------------------- 

  PAW_PBE S 06Sep2000                   :
 energy of atom  1       EATOM= -276.8230
 kinetic energy error for atom=    0.0007 (will be added to EATOM!!)
   PAW_PBE Cu_pv 06Sep2000              :
 energy of atom  2       EATOM=-4120.1201
 kinetic energy error for atom=    0.0094 (will be added to EATOM!!)
   PAW_PBE Fe_pv 02Aug2007              :
 energy of atom  3       EATOM=-2457.4239
 kinetic energy error for atom=    0.0025 (will be added to EATOM!!)
 
 
 POSCAR: Fe16 Cu16 S32                           
  positions in direct lattice
  velocities in cartesian coordinates
 exchange correlation table for  LEXCH =       14
   RHO(1)=    0.500       N(1)  =     2000
   RHO(2)=  100.500       N(2)  =     4000
 


--------------------------------------------------------------------------------------------------------


 ion  position               nearest neighbor table
   1  0.126  0.125  0.121-  37 2.26  41 2.27  61 2.27  49 2.28
   2  0.626  0.125  0.121-  38 2.26  42 2.27  62 2.27  50 2.28
   3  0.126  0.625  0.121-  39 2.26  43 2.27  63 2.27  51 2.28
   4  0.626  0.625  0.121-  40 2.26  44 2.27  64 2.27  52 2.28
   5  0.374  0.375  0.121-  39 2.26  41 2.27  62 2.27  52 2.28
   6  0.874  0.375  0.121-  40 2.26  42 2.27  61 2.27  51 2.28
   7  0.374  0.875  0.121-  37 2.26  43 2.27  64 2.27  50 2.28
   8  0.874  0.875  0.121-  38 2.26  44 2.27  63 2.27  49 2.28
   9  0.125  0.374  0.871-  41 2.26  45 2.27  51 2.27  55 2.28
  10  0.625  0.374  0.871-  42 2.26  46 2.27  52 2.27  56 2.28
  11  0.125  0.874  0.871-  43 2.26  47 2.27  49 2.27  53 2.28
  12  0.625  0.874  0.871-  44 2.26  48 2.27  50 2.27  54 2.28
  13  0.375  0.126  0.871-  41 2.26  46 2.27  50 2.27  53 2.28
  14  0.875  0.126  0.871-  42 2.26  45 2.27  49 2.27  54 2.28
  15  0.375  0.626  0.871-  43 2.26  48 2.27  52 2.27  55 2.28
  16  0.875  0.626  0.871-  44 2.26  47 2.27  51 2.27  56 2.28
  17  0.124  0.125  0.621-  45 2.26  33 2.27  53 2.27  57 2.28
  18  0.624  0.125  0.621-  46 2.26  34 2.27  54 2.27  58 2.28
  19  0.124  0.625  0.621-  47 2.26  35 2.27  55 2.27  59 2.28
  20  0.624  0.625  0.621-  48 2.26  36 2.27  56 2.27  60 2.28
  21  0.376  0.375  0.621-  46 2.26  36 2.27  55 2.27  57 2.28
  22  0.876  0.375  0.621-  45 2.26  35 2.27  56 2.27  58 2.28
  23  0.376  0.875  0.621-  48 2.26  34 2.27  53 2.27  59 2.28
  24  0.876  0.875  0.621-  47 2.26  33 2.27  54 2.27  60 2.28
  25  0.375  0.124  0.371-  34 2.26  37 2.27  57 2.27  62 2.28
  26  0.875  0.124  0.371-  33 2.26  38 2.27  58 2.27  61 2.28
  27  0.375  0.624  0.371-  36 2.26  39 2.27  59 2.27  64 2.28
  28  0.875  0.624  0.371-  35 2.26  40 2.27  60 2.27  63 2.28
  29  0.125  0.376  0.371-  35 2.26  39 2.27  57 2.27  61 2.28
  30  0.625  0.376  0.371-  36 2.26  40 2.27  58 2.27  62 2.28
  31  0.125  0.876  0.371-  33 2.26  37 2.27  59 2.27  63 2.28
  32  0.625  0.876  0.371-  34 2.26  38 2.27  60 2.27  64 2.28
  33  0.000  0.000  0.503-  26 2.26  31 2.26  17 2.27  24 2.27
  34  0.500  0.000  0.503-  32 2.26  25 2.26  18 2.27  23 2.27
  35  0.000  0.500  0.503-  28 2.26  29 2.26  22 2.27  19 2.27
  36  0.500  0.500  0.503-  30 2.26  27 2.26  21 2.27  20 2.27
  37  0.250  0.000  0.253-   7 2.26   1 2.26  25 2.27  31 2.27
  38  0.750  0.000  0.253-   8 2.26   2 2.26  32 2.27  26 2.27
  39  0.250  0.500  0.253-   3 2.26   5 2.26  27 2.27  29 2.27
  40  0.750  0.500  0.253-   4 2.26   6 2.26  28 2.27  30 2.27
  41  0.250  0.250  0.003-   9 2.26  13 2.26   5 2.27   1 2.27
  42  0.750  0.250  0.003-  10 2.26  14 2.26   6 2.27   2 2.27
  43  0.250  0.750  0.003-  11 2.26  15 2.26   7 2.27   3 2.27
  44  0.750  0.750  0.003-  12 2.26  16 2.26   4 2.27   8 2.27
  45  0.000  0.250  0.753-  17 2.26  22 2.26   9 2.27  14 2.27
  46  0.500  0.250  0.753-  18 2.26  21 2.26  13 2.27  10 2.27
  47  0.000  0.750  0.753-  24 2.26  19 2.26  11 2.27  16 2.27
  48  0.500  0.750  0.753-  20 2.26  23 2.26  15 2.27  12 2.27
  49  0.000  0.000  0.004-  14 2.27  11 2.27   1 2.28   8 2.28
  50  0.500  0.000  0.004-  13 2.27  12 2.27   7 2.28   2 2.28
  51  0.000  0.500  0.004-   9 2.27  16 2.27   3 2.28   6 2.28
  52  0.500  0.500  0.004-  15 2.27  10 2.27   4 2.28   5 2.28
  53  0.250  0.000  0.754-  17 2.27  23 2.27  11 2.28  13 2.28
  54  0.750  0.000  0.754-  18 2.27  24 2.27  14 2.28  12 2.28
  55  0.250  0.500  0.754-  21 2.27  19 2.27   9 2.28  15 2.28
  56  0.750  0.500  0.754-  22 2.27  20 2.27  10 2.28  16 2.28
  57  0.250  0.250  0.504-  25 2.27  29 2.27  17 2.28  21 2.28
  58  0.750  0.250  0.504-  26 2.27  30 2.27  18 2.28  22 2.28
  59  0.250  0.750  0.504-  27 2.27  31 2.27  19 2.28  23 2.28
  60  0.750  0.750  0.504-  28 2.27  32 2.27  20 2.28  24 2.28
  61  0.000  0.250  0.254-   1 2.27   6 2.27  26 2.28  29 2.28
  62  0.500  0.250  0.254-   5 2.27   2 2.27  30 2.28  25 2.28
  63  0.000  0.750  0.254-   3 2.27   8 2.27  28 2.28  31 2.28
  64  0.500  0.750  0.254-   4 2.27   7 2.27  32 2.28  27 2.28
 
  LATTYP: Found a base centered orthorhombic cell.
 ALAT       =    14.3306757474
 B/A-ratio  =     1.0723573463
 C/A-ratio  =     0.7278385459
  
  Lattice vectors:
  
 A1 = (  10.4999280000,   0.3666100000,   0.0000000000)
 A2 = (  -0.3666100000, -10.4999280000,   0.0000000000)
 A3 = (   0.0000000000,   0.0000000000, -10.4304181975)


Analysis of symmetry for initial positions (statically):
=====================================================================
 Subroutine PRICEL returns following result:
 
  LATTYP: Found a face centered orthorhombic cell.
 ALAT       =     7.1653378737
 B/A-ratio  =     1.0723573463
 C/A-ratio  =     1.4556770918
  
  Lattice vectors:
  
 A1 = (  -2.7166345000,  -2.7166345000,   5.2152090987)
 A2 = (  -2.5333295000,   2.5333295000,   5.2152090987)
 A3 = (  -5.2499640000,  -0.1833050000,   0.0000000000)
 
   8 primitive cells build up your supercell.
 

 Routine SETGRP: Setting up the symmetry group for a 
 base centered orthorhombic supercell.


 Subroutine GETGRP returns: Found  4 space group operations
 (whereof  2 operations were pure point group operations)
 out of a pool of  8 trial point group operations.


The static configuration has the point symmetry C_2 .
 The point group associated with its full space group is C_2v.


Analysis of symmetry for dynamics (positions and initial velocities):
=====================================================================
 Subroutine PRICEL returns following result:
 
  LATTYP: Found a face centered orthorhombic cell.
 ALAT       =     7.1653378737
 B/A-ratio  =     1.0723573463
 C/A-ratio  =     1.4556770918
  
  Lattice vectors:
  
 A1 = (  -2.7166345000,  -2.7166345000,   5.2152090987)
 A2 = (  -2.5333295000,   2.5333295000,   5.2152090987)
 A3 = (  -5.2499640000,  -0.1833050000,   0.0000000000)
 
   8 primitive cells build up your supercell.
 

 Routine SETGRP: Setting up the symmetry group for a 
 base centered orthorhombic supercell.


 Subroutine GETGRP returns: Found  4 space group operations
 (whereof  2 operations were pure point group operations)
 out of a pool of  8 trial point group operations.


The dynamic configuration has the point symmetry C_2 .
 The point group associated with its full space group is C_2v.


Analysis of structural, dynamic, and magnetic symmetry:
=====================================================================
 Subroutine PRICEL returns following result:
 
  LATTYP: Found a face centered orthorhombic cell.
 ALAT       =     7.1653378737
 B/A-ratio  =     1.0723573463
 C/A-ratio  =     1.4556770918
  
  Lattice vectors:
  
 A1 = (  -2.7166345000,  -2.7166345000,   5.2152090987)
 A2 = (  -2.5333295000,   2.5333295000,   5.2152090987)
 A3 = (  -5.2499640000,  -0.1833050000,   0.0000000000)
 
   8 primitive cells build up your supercell.
 

 Routine SETGRP: Setting up the symmetry group for a 
 base centered orthorhombic supercell.


 Subroutine GETGRP returns: Found  4 space group operations
 (whereof  2 operations were pure point group operations)
 out of a pool of  8 trial point group operations.


The magnetic configuration has the point symmetry C_2 .
 The point group associated with its full space group is C_2v.


 Subroutine INISYM returns: Found  4 space group operations
 (whereof  2 operations are pure point group operations),
 and found     8 'primitive' translations

 
 
 KPOINTS: Automatic mesh                          

Automatic generation of k-mesh.
Space group operators:
 irot       det(A)        alpha          n_x          n_y          n_z        tau_x        tau_y        tau_z
    1     1.000000     0.000001     1.000000     0.000000     0.000000     0.000000     0.000000     0.000000
    2     1.000000   180.000000     0.000000     0.000000     1.000000     0.000000     0.000000     0.000000
    3    -1.000000   180.000000     0.707107     0.707107     0.000000    -0.750000     0.000000     0.750000
    4    -1.000000   180.000000     0.707107    -0.707107     0.000000    -0.750000     0.000000     0.750000
 
 Subroutine IBZKPT returns following result:
 ===========================================
 
 Found     21 irreducible k-points:
 
 Following reciprocal coordinates:
            Coordinates               Weight
  0.000000  0.000000  0.000000      1.000000
  0.250000  0.000000  0.000000      4.000000
  0.500000  0.000000  0.000000      2.000000
  0.250000  0.250000  0.000000      2.000000
  0.500000  0.250000  0.000000      4.000000
 -0.250000  0.250000  0.000000      2.000000
  0.500000  0.500000  0.000000      1.000000
  0.000000  0.000000  0.250000      2.000000
  0.250000  0.000000  0.250000      8.000000
  0.500000  0.000000  0.250000      4.000000
  0.250000  0.250000  0.250000      4.000000
  0.500000  0.250000  0.250000      8.000000
 -0.250000  0.250000  0.250000      4.000000
  0.500000  0.500000  0.250000      2.000000
  0.000000  0.000000  0.500000      1.000000
  0.250000  0.000000  0.500000      4.000000
  0.500000  0.000000  0.500000      2.000000
  0.250000  0.250000  0.500000      2.000000
  0.500000  0.250000  0.500000      4.000000
 -0.250000  0.250000  0.500000      2.000000
  0.500000  0.500000  0.500000      1.000000
 
 Following cartesian coordinates:
            Coordinates               Weight
  0.000000  0.000000  0.000000      1.000000
  0.023839 -0.000832  0.000000      4.000000
  0.047677 -0.001665  0.000000      2.000000
  0.023006  0.023006  0.000000      2.000000
  0.046845  0.022174  0.000000      4.000000
 -0.024671  0.024671  0.000000      2.000000
  0.046013  0.046013  0.000000      1.000000
  0.000000  0.000000  0.023968      2.000000
  0.023839 -0.000832  0.023968      8.000000
  0.047677 -0.001665  0.023968      4.000000
  0.023006  0.023006  0.023968      4.000000
  0.046845  0.022174  0.023968      8.000000
 -0.024671  0.024671  0.023968      4.000000
  0.046013  0.046013  0.023968      2.000000
  0.000000  0.000000  0.047937      1.000000
  0.023839 -0.000832  0.047937      4.000000
  0.047677 -0.001665  0.047937      2.000000
  0.023006  0.023006  0.047937      2.000000
  0.046845  0.022174  0.047937      4.000000
 -0.024671  0.024671  0.047937      2.000000
  0.046013  0.046013  0.047937      1.000000
 
 TETIRR: Found     96 inequivalent tetrahedra from      384
 
 Subroutine IBZKPT_HF returns following result:
 ==============================================
 
 Found     64 k-points in 1st BZ
 the following     64 k-points will be used (e.g. in the exchange kernel)
 Following reciprocal coordinates:   # in IRBZ
  0.000000  0.000000  0.000000    0.01562500   1 t-inv F
  0.250000  0.000000  0.000000    0.01562500   2 t-inv F
  0.500000  0.000000  0.000000    0.01562500   3 t-inv F
  0.250000  0.250000  0.000000    0.01562500   4 t-inv F
  0.500000  0.250000  0.000000    0.01562500   5 t-inv F
 -0.250000  0.250000  0.000000    0.01562500   6 t-inv F
  0.500000  0.500000  0.000000    0.01562500   7 t-inv F
  0.000000  0.000000  0.250000    0.01562500   8 t-inv F
  0.250000  0.000000  0.250000    0.01562500   9 t-inv F
  0.500000  0.000000  0.250000    0.01562500  10 t-inv F
  0.250000  0.250000  0.250000    0.01562500  11 t-inv F
  0.500000  0.250000  0.250000    0.01562500  12 t-inv F
 -0.250000  0.250000  0.250000    0.01562500  13 t-inv F
  0.500000  0.500000  0.250000    0.01562500  14 t-inv F
  0.000000  0.000000  0.500000    0.01562500  15 t-inv F
  0.250000  0.000000  0.500000    0.01562500  16 t-inv F
  0.500000  0.000000  0.500000    0.01562500  17 t-inv F
  0.250000  0.250000  0.500000    0.01562500  18 t-inv F
  0.500000  0.250000  0.500000    0.01562500  19 t-inv F
 -0.250000  0.250000  0.500000    0.01562500  20 t-inv F
  0.500000  0.500000  0.500000    0.01562500  21 t-inv F
 -0.250000  0.000000  0.000000    0.01562500   2 t-inv F
  0.000000 -0.250000  0.000000    0.01562500   2 t-inv F spinflp
  0.000000  0.250000  0.000000    0.01562500   2 t-inv F spinflp
  0.000000 -0.500000  0.000000    0.01562500   3 t-inv F spinflp
 -0.250000 -0.250000  0.000000    0.01562500   4 t-inv F
 -0.500000 -0.250000  0.000000    0.01562500   5 t-inv F
 -0.250000 -0.500000  0.000000    0.01562500   5 t-inv F spinflp
  0.250000  0.500000  0.000000    0.01562500   5 t-inv F spinflp
  0.250000 -0.250000  0.000000    0.01562500   6 t-inv F
 -0.250000  0.000000  0.250000    0.01562500   9 t-inv F
  0.000000 -0.250000  0.250000    0.01562500   9 t-inv F spinflp
  0.000000  0.250000  0.250000    0.01562500   9 t-inv F spinflp
  0.000000 -0.500000  0.250000    0.01562500  10 t-inv F spinflp
 -0.250000 -0.250000  0.250000    0.01562500  11 t-inv F
 -0.500000 -0.250000  0.250000    0.01562500  12 t-inv F
 -0.250000 -0.500000  0.250000    0.01562500  12 t-inv F spinflp
  0.250000  0.500000  0.250000    0.01562500  12 t-inv F spinflp
  0.250000 -0.250000  0.250000    0.01562500  13 t-inv F
 -0.250000  0.000000  0.500000    0.01562500  16 t-inv F
  0.000000 -0.250000  0.500000    0.01562500  16 t-inv F spinflp
  0.000000  0.250000  0.500000    0.01562500  16 t-inv F spinflp
  0.000000 -0.500000  0.500000    0.01562500  17 t-inv F spinflp
 -0.250000 -0.250000  0.500000    0.01562500  18 t-inv F
 -0.500000 -0.250000  0.500000    0.01562500  19 t-inv F
 -0.250000 -0.500000  0.500000    0.01562500  19 t-inv F spinflp
  0.250000  0.500000  0.500000    0.01562500  19 t-inv F spinflp
  0.250000 -0.250000  0.500000    0.01562500  20 t-inv F
  0.000000  0.000000 -0.250000    0.01562500   8 t-inv T
 -0.250000  0.000000 -0.250000    0.01562500   9 t-inv T
  0.250000  0.000000 -0.250000    0.01562500   9 t-inv T
  0.000000  0.250000 -0.250000    0.01562500   9 t-inv T spinflp
  0.000000 -0.250000 -0.250000    0.01562500   9 t-inv T spinflp
 -0.500000  0.000000 -0.250000    0.01562500  10 t-inv T
  0.000000  0.500000 -0.250000    0.01562500  10 t-inv T spinflp
 -0.250000 -0.250000 -0.250000    0.01562500  11 t-inv T
  0.250000  0.250000 -0.250000    0.01562500  11 t-inv T
 -0.500000 -0.250000 -0.250000    0.01562500  12 t-inv T
  0.500000  0.250000 -0.250000    0.01562500  12 t-inv T
  0.250000  0.500000 -0.250000    0.01562500  12 t-inv T spinflp
 -0.250000 -0.500000 -0.250000    0.01562500  12 t-inv T spinflp
  0.250000 -0.250000 -0.250000    0.01562500  13 t-inv T
 -0.250000  0.250000 -0.250000    0.01562500  13 t-inv T
 -0.500000 -0.500000 -0.250000    0.01562500  14 t-inv T


--------------------------------------------------------------------------------------------------------




 Dimension of arrays:
   k-points           NKPTS =     21   k-points in BZ     NKDIM =     21   number of bands    NBANDS=    512
   number of dos      NEDOS =    301   number of ions     NIONS =     64
   non local maximal  LDIM  =      6   non local SUM 2l+1 LMDIM =     18
   total plane-waves  NPLWV = 829440
   max r-space proj   IRMAX =      1   max aug-charges    IRDMAX=  22949
   dimension x,y,z NGX =    96 NGY =   96 NGZ =   90
   dimension x,y,z NGXF=   192 NGYF=  192 NGZF=  180
   support grid    NGXF=   192 NGYF=  192 NGZF=  180
   ions per type =              32  16  16
   NGX,Y,Z   is equivalent  to a cutoff of  15.19, 15.19, 14.34 a.u.
   NGXF,Y,Z  is equivalent  to a cutoff of  30.38, 30.38, 28.69 a.u.

 SYSTEM =  CuFeS2                                  
 POSCAR =  Fe16 Cu16 S32                           

 Startparameter for this run:
   NWRITE =      2    write-flag & timer
   PREC   = accura    normal or accurate (medium, high low for compatibility)
   ISTART =      1    job   : 0-new  1-cont  2-samecut
   ICHARG =      1    charge: 1-file 2-atom 10-const
   ISPIN  =      2    spin polarized calculation?
   LNONCOLLINEAR =      F non collinear calculations
   LSORBIT =      F    spin-orbit coupling
   INIWAV =      1    electr: 0-lowe 1-rand  2-diag
   LASPH  =      F    aspherical Exc in radial PAW
   METAGGA=      F    non-selfconsistent MetaGGA calc.

 Electronic Relaxation 1
   ENCUT  =  700.0 eV  51.45 Ry    7.17 a.u.  22.67 22.67 22.50*2*pi/ulx,y,z
   ENINI  =  700.0     initial cutoff
   ENAUG  =  758.2 eV  augmentation charge cutoff
   NELM   =    500;   NELMIN=  2; NELMDL=  0     # of ELM steps 
   EDIFF  = 0.1E-07   stopping-criterion for ELM
   LREAL  =      F    real-space projection
   NLSPLINE    = F    spline interpolate recip. space projectors
   LCOMPAT=      F    compatible to vasp.4.4
   GGA_COMPAT  = T    GGA compatible to vasp.4.4-vasp.4.6
   LMAXPAW     = -100 max onsite density
   LMAXMIX     =    4 max onsite mixed and CHGCAR
   VOSKOWN=      0    Vosko Wilk Nusair interpolation
   ROPT   =    0.00000   0.00000   0.00000
 Ionic relaxation
   EDIFFG = -.1E-04   stopping-criterion for IOM
   NSW    =      0    number of steps for IOM
   NBLOCK =      1;   KBLOCK =      1    inner block; outer block 
   IBRION =     -1    ionic relax: 0-MD 1-quasi-New 2-CG
   NFREE  =      0    steps in history (QN), initial steepest desc. (CG)
   ISIF   =      2    stress and relaxation
   IWAVPR =     10    prediction:  0-non 1-charg 2-wave 3-comb
   ISYM   =      2    0-nonsym 1-usesym 2-fastsym
   LCORR  =      T    Harris-Foulkes like correction to forces

   POTIM  = 0.5000    time-step for ionic-motion
   TEIN   =    0.0    initial temperature
   TEBEG  =    0.0;   TEEND  =   0.0 temperature during run
   SMASS  =  -3.00    Nose mass-parameter (am)
   estimated Nose-frequenzy (Omega)   =  0.10E-29 period in steps =****** mass=  -0.252E-26a.u.
   SCALEE = 1.0000    scale energy and forces
   NPACO  =    256;   APACO  = 16.0  distance and # of slots for P.C.
   PSTRESS=    0.0 pullay stress

  Mass of Ions in am
   POMASS =  32.07 63.55 55.85
  Ionic Valenz
   ZVAL   =   6.00 17.00 14.00
  Atomic Wigner-Seitz radii
   RWIGS  =  -1.00 -1.00 -1.00
  virtual crystal weights 
   VCA    =   1.00  1.00  1.00
   NELECT =     688.0000    total number of electrons
   NUPDOWN=      -1.0000    fix difference up-down

 DOS related values:
   EMIN   =  10.00;   EMAX   =-10.00  energy-range for DOS
   EFERMI =   0.00
   ISMEAR =    -5;   SIGMA  =   0.03  broadening in eV -4-tet -1-fermi 0-gaus

 Electronic relaxation 2 (details)
   IALGO  =     38    algorithm
   LDIAG  =      T    sub-space diagonalisation (order eigenvalues)
   LSUBROT=      F    optimize rotation matrix (better conditioning)
   TURBO    =      0    0=normal 1=particle mesh
   IRESTART =      0    0=no restart 2=restart with 2 vectors
   NREBOOT  =      0    no. of reboots
   NMIN     =      0    reboot dimension
   EREF     =   0.00    reference energy to select bands
   IMIX   =      4    mixing-type and parameters
     AMIX     =   0.40;   BMIX     =  1.00
     AMIX_MAG =   1.60;   BMIX_MAG =  1.00
     AMIN     =   0.10
     WC   =   100.;   INIMIX=   1;  MIXPRE=   1;  MAXMIX= -45

 Intra band minimization:
   WEIMIN = 0.0000     energy-eigenvalue tresh-hold
   EBREAK =  0.49E-11  absolut break condition
   DEPER  =   0.30     relativ break condition  

   TIME   =   0.40     timestep for ELM

  volume/ion in A,a.u.               =      17.95       121.10
  Fermi-wavevector in a.u.,A,eV,Ry     =   1.380033  2.607884 25.912171  1.904491
  Thomas-Fermi vector in A             =   2.504947
 
 Write flags
   LWAVE        =      T    write WAVECAR
   LDOWNSAMPLE  =      F    k-point downsampling of WAVECAR
   LCHARG       =      T    write CHGCAR
   LVTOT        =      F    write LOCPOT, total local potential
   LVHAR        =      F    write LOCPOT, Hartree potential only
   LELF         =      F    write electronic localiz. function (ELF)
   LORBIT       =     11    0 simple, 1 ext, 2 COOP (PROOUT), +10 PAW based schemes


 Dipole corrections
   LMONO  =      F    monopole corrections only (constant potential shift)
   LDIPOL =      F    correct potential (dipole corrections)
   IDIPOL =      0    1-x, 2-y, 3-z, 4-all directions 
   EPSILON=  1.0000000 bulk dielectric constant

 LDA+U is selected, type is set to LDAUTYPE =  2
   angular momentum for each species LDAUL =     2    2    2
   U (eV)           for each species LDAUU =   0.0  0.1  4.7
   J (eV)           for each species LDAUJ =   0.0  0.0  0.0
 Exchange correlation treatment:
   GGA     =    PS    GGA type
   LEXCH   =    14    internal setting for exchange type
   VOSKOWN=      0    Vosko Wilk Nusair interpolation
   LHFCALC =     F    Hartree Fock is set to
   LHFONE  =     F    Hartree Fock one center treatment
   AEXX    =    0.0000 exact exchange contribution

 Linear response parameters
   LEPSILON=     F    determine dielectric tensor
   LRPA    =     F    only Hartree local field effects (RPA)
   LNABLA  =     F    use nabla operator in PAW spheres
   LVEL    =     F    velocity operator in full k-point grid
   LINTERFAST=   F  fast interpolation
   KINTER  =     0    interpolate to denser k-point grid
   CSHIFT  =0.1000    complex shift for real part using Kramers Kronig
   OMEGAMAX=  -1.0    maximum frequency
   DEG_THRESHOLD= 0.2000000E-02 threshold for treating states as degnerate
   RTIME   =   -0.100 relaxation time in fs
  (WPLASMAI=    0.000 imaginary part of plasma frequency in eV, 0.658/RTIME)
   DFIELD  = 0.0000000 0.0000000 0.0000000 field for delta impulse in time
 
 Orbital magnetization related:
   ORBITALMAG=     F  switch on orbital magnetization
   LCHIMAG   =     F  perturbation theory with respect to B field
   DQ        =  0.001000  dq finite difference perturbation B field
   LLRAUG    =     F  two centre corrections for induced B field

 PEAD related settings:
   LPEAD      =     T    switch on PEAD
   IPEAD      =     4    finite difference order for dpsi/dk
   LCALCPOL   =     T    calculate macroscopic polarization
   LCALCEPS   =     F    calculate dielectric tensor
   EFIELD_PEAD=    0.0000    0.0000    0.0000
   SKIP_EDOTP =     F
   LRPA       =     F
   SKIP_SCF   =     F


--------------------------------------------------------------------------------------------------------


 Static calculation
 charge density and potential will be updated during run
 spin polarized calculation
 Variant of blocked Davidson
 Davidson routine will perform the subspace rotation
 perform sub-space diagonalisation
    after iterative eigenvector-optimisation
 modified Broyden-mixing scheme, WC =      100.0
 initial mixing is a Kerker type mixing with AMIX =  0.4000 and BMIX =      1.0000
 Hartree-type preconditioning will be used
 using additional bands          168
 reciprocal scheme for non local part
 use partial core corrections
 calculate Harris-corrections to forces 
   (improved forces if not selfconsistent)
 use gradient corrections 
 use of overlap-Matrix (Vanderbilt PP)
 Fermi weights with tetrahedron method with Bloechl corrections


--------------------------------------------------------------------------------------------------------


  energy-cutoff  :      700.00
  volume of cell :     1148.54
      direct lattice vectors                 reciprocal lattice vectors
    10.499928000  0.366610000  0.000000000     0.095354995 -0.003329365  0.000000000
     0.366610000 10.499928000  0.000000000    -0.003329365  0.095354995  0.000000000
     0.000000000  0.000000000 10.430418197     0.000000000  0.000000000  0.095873433

  length of vectors
    10.506326232 10.506326232 10.430418197     0.095413100  0.095413100  0.095873433


 
 old parameters found on file WAVECAR:
  energy-cutoff  :      700.00
  volume of cell :     1148.56
      direct lattice vectors                 reciprocal lattice vectors
    10.499928000  0.366610000  0.000000000     0.095354995 -0.003329365  0.000000000
     0.366610000 10.499928000  0.000000000    -0.003329365  0.095354995  0.000000000
     0.000000000  0.000000000 10.430626225     0.000000000  0.000000000  0.095871521

  length of vectors

 
 k-points in units of 2pi/SCALE and weight: Automatic mesh                          
   0.00000000  0.00000000  0.00000000       0.016
   0.02383875 -0.00083234  0.00000000       0.062
   0.04767750 -0.00166468  0.00000000       0.031
   0.02300641  0.02300641  0.00000000       0.031
   0.04684516  0.02217407  0.00000000       0.062
  -0.02467109  0.02467109  0.00000000       0.031
   0.04601281  0.04601281  0.00000000       0.016
   0.00000000  0.00000000  0.02396836       0.031
   0.02383875 -0.00083234  0.02396836       0.125
   0.04767750 -0.00166468  0.02396836       0.062
   0.02300641  0.02300641  0.02396836       0.062
   0.04684516  0.02217407  0.02396836       0.125
  -0.02467109  0.02467109  0.02396836       0.062
   0.04601281  0.04601281  0.02396836       0.031
   0.00000000  0.00000000  0.04793672       0.016
   0.02383875 -0.00083234  0.04793672       0.062
   0.04767750 -0.00166468  0.04793672       0.031
   0.02300641  0.02300641  0.04793672       0.031
   0.04684516  0.02217407  0.04793672       0.062
  -0.02467109  0.02467109  0.04793672       0.031
   0.04601281  0.04601281  0.04793672       0.016
 
 k-points in reciprocal lattice and weights: Automatic mesh                          
   0.00000000  0.00000000  0.00000000       0.016
   0.25000000  0.00000000  0.00000000       0.062
   0.50000000  0.00000000  0.00000000       0.031
   0.25000000  0.25000000  0.00000000       0.031
   0.50000000  0.25000000  0.00000000       0.062
  -0.25000000  0.25000000  0.00000000       0.031
   0.50000000  0.50000000  0.00000000       0.016
   0.00000000  0.00000000  0.25000000       0.031
   0.25000000  0.00000000  0.25000000       0.125
   0.50000000  0.00000000  0.25000000       0.062
   0.25000000  0.25000000  0.25000000       0.062
   0.50000000  0.25000000  0.25000000       0.125
  -0.25000000  0.25000000  0.25000000       0.062
   0.50000000  0.50000000  0.25000000       0.031
   0.00000000  0.00000000  0.50000000       0.016
   0.25000000  0.00000000  0.50000000       0.062
   0.50000000  0.00000000  0.50000000       0.031
   0.25000000  0.25000000  0.50000000       0.031
   0.50000000  0.25000000  0.50000000       0.062
  -0.25000000  0.25000000  0.50000000       0.031
   0.50000000  0.50000000  0.50000000       0.016
 
 position of ions in fractional coordinates (direct lattice) 
   0.12612587  0.12540129  0.12111480
   0.62612587  0.12540129  0.12111480
   0.12612587  0.62540129  0.12111480
   0.62612587  0.62540129  0.12111480
   0.37387413  0.37459871  0.12111480
   0.87387413  0.37459871  0.12111480
   0.37387413  0.87459871  0.12111480
   0.87387413  0.87459871  0.12111480
   0.12459871  0.37387413  0.87111480
   0.62459871  0.37387413  0.87111480
   0.12459871  0.87387413  0.87111480
   0.62459871  0.87387413  0.87111480
   0.37540129  0.12612587  0.87111480
   0.87540129  0.12612587  0.87111480
   0.37540129  0.62612587  0.87111480
   0.87540129  0.62612587  0.87111480
   0.12387413  0.12459871  0.62111480
   0.62387413  0.12459871  0.62111480
   0.12387413  0.62459871  0.62111480
   0.62387413  0.62459871  0.62111480
   0.37612587  0.37540129  0.62111480
   0.87612587  0.37540129  0.62111480
   0.37612587  0.87540129  0.62111480
   0.87612587  0.87540129  0.62111480
   0.37459871  0.12387413  0.37111480
   0.87459871  0.12387413  0.37111480
   0.37459871  0.62387413  0.37111480
   0.87459871  0.62387413  0.37111480
   0.12540129  0.37612587  0.37111480
   0.62540129  0.37612587  0.37111480
   0.12540129  0.87612587  0.37111480
   0.62540129  0.87612587  0.37111480
   0.00000000  0.00000000  0.50337879
   0.50000000  0.00000000  0.50337879
   0.00000000  0.50000000  0.50337879
   0.50000000  0.50000000  0.50337879
   0.25000000  0.00000000  0.25337879
   0.75000000  0.00000000  0.25337879
   0.25000000  0.50000000  0.25337879
   0.75000000  0.50000000  0.25337879
   0.25000000  0.25000000  0.00337879
   0.75000000  0.25000000  0.00337879
   0.25000000  0.75000000  0.00337879
   0.75000000  0.75000000  0.00337879
   0.00000000  0.25000000  0.75337879
   0.50000000  0.25000000  0.75337879
   0.00000000  0.75000000  0.75337879
   0.50000000  0.75000000  0.75337879
   0.00000000  0.00000000  0.00439161
   0.50000000  0.00000000  0.00439161
   0.00000000  0.50000000  0.00439161
   0.50000000  0.50000000  0.00439161
   0.25000000  0.00000000  0.75439161
   0.75000000  0.00000000  0.75439161
   0.25000000  0.50000000  0.75439161
   0.75000000  0.50000000  0.75439161
   0.25000000  0.25000000  0.50439161
   0.75000000  0.25000000  0.50439161
   0.25000000  0.75000000  0.50439161
   0.75000000  0.75000000  0.50439161
   0.00000000  0.25000000  0.25439161
   0.50000000  0.25000000  0.25439161
   0.00000000  0.75000000  0.25439161
   0.50000000  0.75000000  0.25439161
 
 position of ions in cartesian coordinates  (Angst):
   1.37028591  1.36294355  1.26327799
   6.62024991  1.54624855  1.26327799
   1.55359091  6.61290755  1.26327799
   6.80355491  6.79621255  1.26327799
   4.06298309  4.07032545  1.26327799
   9.31294709  4.25363045  1.26327799
   4.24628809  9.32028945  1.26327799
   9.49625209  9.50359445  1.26327799
   1.44534345  3.97133059  9.08609164
   6.69530745  4.15463559  9.08609164
   1.62864845  9.22129459  9.08609164
   6.87861245  9.40459959  9.08609164
   3.98792555  1.46193841  9.08609164
   9.23788955  1.64524341  9.08609164
   4.17123055  6.71190241  9.08609164
   9.42119455  6.89520741  9.08609164
   1.34634859  1.35369095  6.47848709
   6.59631259  1.53699595  6.47848709
   1.52965359  6.60365495  6.47848709
   6.77961759  6.78695995  6.47848709
   4.08692041  4.07957805  6.47848709
   9.33688441  4.26288305  6.47848709
   4.27022541  9.32954205  6.47848709
   9.52018941  9.51284705  6.47848709
   3.97867295  1.43800109  3.87088254
   9.22863695  1.62130609  3.87088254
   4.16197795  6.68796509  3.87088254
   9.41194195  6.87127009  3.87088254
   1.45459605  3.99526791  3.87088254
   6.70456005  4.17857291  3.87088254
   1.63790105  9.24523191  3.87088254
   6.88786505  9.42853691  3.87088254
   0.00000000  0.00000000  5.25045134
   5.24996400  0.18330500  5.25045134
   0.18330500  5.24996400  5.25045134
   5.43326900  5.43326900  5.25045134
   2.62498200  0.09165250  2.64284679
   7.87494600  0.27495750  2.64284679
   2.80828700  5.34161650  2.64284679
   8.05825100  5.52492150  2.64284679
   2.71663450  2.71663450  0.03524224
   7.96659850  2.89993950  0.03524224
   2.89993950  7.96659850  0.03524224
   8.14990350  8.14990350  0.03524224
   0.09165250  2.62498200  7.85805589
   5.34161650  2.80828700  7.85805589
   0.27495750  7.87494600  7.85805589
   5.52492150  8.05825100  7.85805589
   0.00000000  0.00000000  0.04580632
   5.24996400  0.18330500  0.04580632
   0.18330500  5.24996400  0.04580632
   5.43326900  5.43326900  0.04580632
   2.62498200  0.09165250  7.86861996
   7.87494600  0.27495750  7.86861996
   2.80828700  5.34161650  7.86861996
   8.05825100  5.52492150  7.86861996
   2.71663450  2.71663450  5.26101542
   7.96659850  2.89993950  5.26101542
   2.89993950  7.96659850  5.26101542
   8.14990350  8.14990350  5.26101542
   0.09165250  2.62498200  2.65341087
   5.34161650  2.80828700  2.65341087
   0.27495750  7.87494600  2.65341087
   5.52492150  8.05825100  2.65341087
 


--------------------------------------------------------------------------------------------------------


 k-point  1 :   0.0000 0.0000 0.0000  plane waves:   48303
 k-point  2 :   0.2500 0.0000 0.0000  plane waves:   48338
 k-point  3 :   0.5000 0.0000 0.0000  plane waves:   48342
 k-point  4 :   0.2500 0.2500 0.0000  plane waves:   48321
 k-point  5 :   0.5000 0.2500 0.0000  plane waves:   48301
 k-point  6 :  -0.2500 0.2500 0.0000  plane waves:   48277
 k-point  7 :   0.5000 0.5000 0.0000  plane waves:   48328
 k-point  8 :   0.0000 0.0000 0.2500  plane waves:   48265
 k-point  9 :   0.2500 0.0000 0.2500  plane waves:   48321
 k-point 10 :   0.5000 0.0000 0.2500  plane waves:   48338
 k-point 11 :   0.2500 0.2500 0.2500  plane waves:   48281
 k-point 12 :   0.5000 0.2500 0.2500  plane waves:   48296
 k-point 13 :  -0.2500 0.2500 0.2500  plane waves:   48314
 k-point 14 :   0.5000 0.5000 0.2500  plane waves:   48294
 k-point 15 :   0.0000 0.0000 0.5000  plane waves:   48266
 k-point 16 :   0.2500 0.0000 0.5000  plane waves:   48268
 k-point 17 :   0.5000 0.0000 0.5000  plane waves:   48296
 k-point 18 :   0.2500 0.2500 0.5000  plane waves:   48274
 k-point 19 :   0.5000 0.2500 0.5000  plane waves:   48262
 k-point 20 :  -0.2500 0.2500 0.5000  plane waves:   48304
 k-point 21 :   0.5000 0.5000 0.5000  plane waves:   48196

 maximum and minimum number of plane-waves per node :     48342    48196

 maximum number of plane-waves:     48342
 maximum index in each direction: 
   IXMAX=   22   IYMAX=   22   IZMAX=   22
   IXMIN=  -23   IYMIN=  -23   IZMIN=  -23


 serial   3D FFT for wavefunctions
 parallel 3D FFT for charge:
    minimum data exchange during FFTs selected (reduces bandwidth)


 total amount of memory used by VASP MPI-rank0   661185. kBytes
=======================================================================

   base      :      30000. kBytes
   nonl-proj :     488484. kBytes
   fftplans  :       4588. kBytes
   grid      :      69719. kBytes
   one-center:       1990. kBytes
   wavefun   :      66404. kBytes
 
     INWAV:  cpu time   41.3892: real time   41.6306
 Broyden mixing: mesh for mixing (old mesh)
   NGX = 45   NGY = 45   NGZ = 45
  (NGX  =192   NGY  =192   NGZ  =180)
  gives a total of  91125 points

 initial charge density was supplied:
 number of electron     688.0000311 magnetization      -0.0000000
 keeping initial charge density in first step


--------------------------------------------------------------------------------------------------------


 Maximum index for augmentation-charges          899 (set IRDMAX)


--------------------------------------------------------------------------------------------------------


 First call to EWALD:  gamma=   0.169
 Maximum number of real-space cells 3x 3x 3
 Maximum number of reciprocal cells 3x 3x 3

    FEWALD:  cpu time    0.0026: real time    0.0026


--------------------------------------- Iteration      1(   1)  ---------------------------------------


    POTLOK:  cpu time    0.3085: real time    0.3632
    SETDIJ:  cpu time    0.0149: real time    0.0150
     EDDAV:  cpu time  319.6725: real time  322.1155
 BZINTS: Fermi energy:  5.071708;688.000000 electrons
         Band energy:***********;  BLOECHL correction:  0.000000
       DOS:  cpu time    0.0242: real time    0.0243
    CHARGE:  cpu time    3.0508: real time    3.0707
    MIXING:  cpu time    0.0024: real time    0.0024
    --------------------------------------------
      LOOP:  cpu time  323.0733: real time  325.5911

 eigenvalue-minimisations  : 53760
 total energy-change (2. order) :-0.3276067E+03  (-0.2987584E-06)
 number of electron     688.0000311 magnetization      -0.0000000
 augmentation part      282.2291514 magnetization      -0.0000000

 Broyden mixing:
  rms(total) = 0.63562E-03    rms(broyden)= 0.63559E-03
  rms(prec ) = 0.77604E-03
  weight for this iteration     100.00

 Free energy of the ion-electron system (eV)
  ---------------------------------------------------
  alpha Z        PSCENC =      2360.52735484
  Ewald energy   TEWEN  =    -62529.43327456
  -Hartree energ DENC   =    -42913.29991434
  -exchange      EXHF   =         0.00000000
  -V(xc)+E(xc)   XCENC  =      3286.49346327
  PAW double counting   =    112241.21750581  -115934.57912020
  entropy T*S    EENTRO =         0.00000000
  eigenvalues    EBANDS =    -10858.59783156
  atomic energy  EATOM  =    114020.06510763
  Solvation  Ediel_sol  =         0.00000000
  ---------------------------------------------------
  free energy    TOTEN  =      -327.60670911 eV

  energy without entropy =     -327.60670911  energy(sigma->0) =     -327.60670911


--------------------------------------------------------------------------------------------------------




--------------------------------------- Iteration      1(   2)  ---------------------------------------


    POTLOK:  cpu time    0.1204: real time    0.1215
    SETDIJ:  cpu time    0.0125: real time    0.0125
     EDDAV:  cpu time  287.3116: real time  289.4290
 BZINTS: Fermi energy:  4.949702;688.000000 electrons
         Band energy:***********;  BLOECHL correction:  0.000000
       DOS:  cpu time    0.0200: real time    0.0201
    CHARGE:  cpu time    3.0408: real time    3.0606
    MIXING:  cpu time    0.0018: real time    0.0272
    --------------------------------------------
      LOOP:  cpu time  290.5071: real time  292.6708

 eigenvalue-minimisations  : 49664
 total energy-change (2. order) : 0.1087654E-05  (-0.1166668E-06)
 number of electron     688.0000311 magnetization      -0.0000000
 augmentation part      282.2292335 magnetization      -0.0000000

 Broyden mixing:
  rms(total) = 0.39128E-03    rms(broyden)= 0.39127E-03
  rms(prec ) = 0.46846E-03
  weight for this iteration     100.00

 eigenvalues of (default mixing * dielectric matrix)
  average eigenvalue GAMMA=   0.8474
  0.8474

 Free energy of the ion-electron system (eV)
  ---------------------------------------------------
  alpha Z        PSCENC =      2360.52735484
  Ewald energy   TEWEN  =    -62529.43327456
  -Hartree energ DENC   =    -42913.30332032
  -exchange      EXHF   =         0.00000000
  -V(xc)+E(xc)   XCENC  =      3286.49370780
  PAW double counting   =    112241.20667099  -115934.56804161
  entropy T*S    EENTRO =         0.00000000
  eigenvalues    EBANDS =    -10858.59491278
  atomic energy  EATOM  =    114020.06510763
  Solvation  Ediel_sol  =         0.00000000
  ---------------------------------------------------
  free energy    TOTEN  =      -327.60670802 eV

  energy without entropy =     -327.60670802  energy(sigma->0) =     -327.60670802


--------------------------------------------------------------------------------------------------------




--------------------------------------- Iteration      1(   3)  ---------------------------------------


    POTLOK:  cpu time    0.1207: real time    0.1215
    SETDIJ:  cpu time    0.0125: real time    0.0126
     EDDAV:  cpu time  527.0705: real time  530.5658
 BZINTS: Fermi energy:  5.017778;688.000000 electrons
         Band energy:***********;  BLOECHL correction:  0.000000
       DOS:  cpu time    0.0255: real time    0.0256
    CHARGE:  cpu time    3.0465: real time    3.0677
    MIXING:  cpu time    0.0014: real time    0.0014
    --------------------------------------------
      LOOP:  cpu time  530.2772: real time  533.7946

 eigenvalue-minimisations  : 68864
 total energy-change (2. order) : 0.2917077E-06  (-0.2079767E-06)
 number of electron     688.0000311 magnetization       0.0000000
 augmentation part      282.2291222 magnetization       0.0000000

 Broyden mixing:
  rms(total) = 0.51729E-03    rms(broyden)= 0.51728E-03
  rms(prec ) = 0.60354E-03
  weight for this iteration     100.00

 eigenvalues of (default mixing * dielectric matrix)
  average eigenvalue GAMMA=   0.9253
  1.4947  0.3560

 Free energy of the ion-electron system (eV)
  ---------------------------------------------------
  alpha Z        PSCENC =      2360.52735484
  Ewald energy   TEWEN  =    -62529.43327456
  -Hartree energ DENC   =    -42913.29284505
  -exchange      EXHF   =         0.00000000
  -V(xc)+E(xc)   XCENC  =      3286.49282540
  PAW double counting   =    112241.19819707  -115934.55977665
  entropy T*S    EENTRO =         0.00000000
  eigenvalues    EBANDS =    -10858.60429641
  atomic energy  EATOM  =    114020.06510763
  Solvation  Ediel_sol  =         0.00000000
  ---------------------------------------------------
  free energy    TOTEN  =      -327.60670773 eV

  energy without entropy =     -327.60670773  energy(sigma->0) =     -327.60670773


--------------------------------------------------------------------------------------------------------




--------------------------------------- Iteration      1(   4)  ---------------------------------------


    POTLOK:  cpu time    0.1202: real time    0.1218
    SETDIJ:  cpu time    0.0125: real time    0.0126
     EDDAV:  cpu time  296.1022: real time  298.2907
 BZINTS: Fermi energy:  4.938876;688.000000 electrons
         Band energy:***********;  BLOECHL correction:  0.000000
       DOS:  cpu time    0.0239: real time    0.0240
    CHARGE:  cpu time    3.0487: real time    3.0681
    MIXING:  cpu time    0.0014: real time    0.0015
    --------------------------------------------
      LOOP:  cpu time  299.3091: real time  301.5186

 eigenvalue-minimisations  : 50688
 total energy-change (2. order) : 0.9610085E-07  (-0.1190932E-06)
 number of electron     688.0000311 magnetization      -0.0000000
 augmentation part      282.2291236 magnetization      -0.0000000

 Broyden mixing:
  rms(total) = 0.91422E-04    rms(broyden)= 0.91402E-04
  rms(prec ) = 0.95796E-04
  weight for this iteration     100.00

 eigenvalues of (default mixing * dielectric matrix)
  average eigenvalue GAMMA=   0.9829
  1.8644  0.7416  0.3428

 Free energy of the ion-electron system (eV)
  ---------------------------------------------------
  alpha Z        PSCENC =      2360.52735484
  Ewald energy   TEWEN  =    -62529.43327456
  -Hartree energ DENC   =    -42913.30428860
  -exchange      EXHF   =         0.00000000
  -V(xc)+E(xc)   XCENC  =      3286.49357031
  PAW double counting   =    112241.22150645  -115934.58306024
  entropy T*S    EENTRO =         0.00000000
  eigenvalues    EBANDS =    -10858.59362346
  atomic energy  EATOM  =    114020.06510763
  Solvation  Ediel_sol  =         0.00000000
  ---------------------------------------------------
  free energy    TOTEN  =      -327.60670764 eV

  energy without entropy =     -327.60670764  energy(sigma->0) =     -327.60670764


--------------------------------------------------------------------------------------------------------




--------------------------------------- Iteration      1(   5)  ---------------------------------------


    POTLOK:  cpu time    0.1207: real time    0.1227
    SETDIJ:  cpu time    0.0127: real time    0.0127
     EDDAV:  cpu time  486.6027: real time  489.8419
 BZINTS: Fermi energy:  4.924420;688.000000 electrons
         Band energy:***********;  BLOECHL correction:  0.000000
       DOS:  cpu time    0.0240: real time    0.0241
    CHARGE:  cpu time    3.0456: real time    3.0657
    MIXING:  cpu time    0.0014: real time    0.0014
    --------------------------------------------
      LOOP:  cpu time  489.8070: real time  493.0684

 eigenvalue-minimisations  : 64256
 total energy-change (2. order) :-0.1855369E-07  (-0.8387026E-08)
 number of electron     688.0000311 magnetization       0.0000000
 augmentation part      282.2291926 magnetization       0.0000000

 Broyden mixing:
  rms(total) = 0.46100E-04    rms(broyden)= 0.46098E-04
  rms(prec ) = 0.49683E-04
  weight for this iteration     100.00

 eigenvalues of (default mixing * dielectric matrix)
  average eigenvalue GAMMA=   1.0133
  1.8025  1.2176  0.3450  0.6882

 Free energy of the ion-electron system (eV)
  ---------------------------------------------------
  alpha Z        PSCENC =      2360.52735484
  Ewald energy   TEWEN  =    -62529.43327456
  -Hartree energ DENC   =    -42913.30002419
  -exchange      EXHF   =         0.00000000
  -V(xc)+E(xc)   XCENC  =      3286.49345585
  PAW double counting   =    112241.21197388  -115934.57293713
  entropy T*S    EENTRO =         0.00000000
  eigenvalues    EBANDS =    -10858.59836396
  atomic energy  EATOM  =    114020.06510763
  Solvation  Ediel_sol  =         0.00000000
  ---------------------------------------------------
  free energy    TOTEN  =      -327.60670765 eV

  energy without entropy =     -327.60670765  energy(sigma->0) =     -327.60670765


--------------------------------------------------------------------------------------------------------




--------------------------------------- Iteration      1(   6)  ---------------------------------------


    POTLOK:  cpu time    0.1201: real time    0.1209
    SETDIJ:  cpu time    0.0127: real time    0.0127
     EDDAV:  cpu time  345.1298: real time  347.5017
 BZINTS: Fermi energy:  4.920747;688.000000 electrons
         Band energy:***********;  BLOECHL correction:  0.000000
       DOS:  cpu time    0.0240: real time    0.0241
    --------------------------------------------
      LOOP:  cpu time  345.2866: real time  347.6595

 eigenvalue-minimisations  : 47360
 total energy-change (2. order) :-0.3376044E-08  (-0.3208542E-09)
 number of electron     688.0000311 magnetization       0.0000000
 augmentation part      282.2291926 magnetization       0.0000000

 Free energy of the ion-electron system (eV)
  ---------------------------------------------------
  alpha Z        PSCENC =      2360.52735484
  Ewald energy   TEWEN  =    -62529.43327456
  -Hartree energ DENC   =    -42913.30117559
  -exchange      EXHF   =         0.00000000
  -V(xc)+E(xc)   XCENC  =      3286.49348366
  PAW double counting   =    112241.20385408  -115934.56513289
  entropy T*S    EENTRO =         0.00000000
  eigenvalues    EBANDS =    -10858.59692482
  atomic energy  EATOM  =    114020.06510763
  Solvation  Ediel_sol  =         0.00000000
  ---------------------------------------------------
  free energy    TOTEN  =      -327.60670766 eV

  energy without entropy =     -327.60670766  energy(sigma->0) =     -327.60670766


--------------------------------------------------------------------------------------------------------




 average (electrostatic) potential at core
  the test charge radii are     0.9698  0.8297  0.9500
  (the norm of the test charge is              1.0000)
       1 -86.5982       2 -86.5982       3 -86.5982       4 -86.5982       5 -86.5982
       6 -86.5982       7 -86.5982       8 -86.5982       9 -86.5982      10 -86.5982
      11 -86.5982      12 -86.5982      13 -86.5982      14 -86.5982      15 -86.5982
      16 -86.5982      17 -86.5982      18 -86.5982      19 -86.5982      20 -86.5982
      21 -86.5982      22 -86.5982      23 -86.5982      24 -86.5982      25 -86.5982
      26 -86.5982      27 -86.5982      28 -86.5982      29 -86.5982      30 -86.5982
      31 -86.5982      32 -86.5982      33 -80.6827      34 -80.6827      35 -80.6827
      36 -80.6827      37 -80.6827      38 -80.6827      39 -80.6827      40 -80.6827
      41 -80.6827      42 -80.6827      43 -80.6827      44 -80.6827      45 -80.6827
      46 -80.6827      47 -80.6827      48 -80.6827      49 -80.1984      50 -80.1984
      51 -80.1984      52 -80.1984      53 -80.1984      54 -80.1984      55 -80.1984
      56 -80.1984      57 -80.1984      58 -80.1984      59 -80.1984      60 -80.1984
      61 -80.1984      62 -80.1984      63 -80.1984      64 -80.1984
 
 
 
 E-fermi :   4.9207     XC(G=0): -10.4794     alpha+bet :-10.5660


 spin component 1

 k-point     1 :       0.0000    0.0000    0.0000
  band No.  band energies     occupation 
      1     -64.2950      1.00000
      2     -64.2950      1.00000
      3     -64.2949      1.00000
      4     -64.2949      1.00000
      5     -64.2949      1.00000
      6     -64.2949      1.00000
      7     -64.2949      1.00000
      8     -64.2949      1.00000
      9     -64.2645      1.00000
     10     -64.2645      1.00000
     11     -64.2645      1.00000
     12     -64.2645      1.00000
     13     -64.2645      1.00000
     14     -64.2645      1.00000
     15     -64.2645      1.00000
     16     -64.2644      1.00000
     17     -64.2598      1.00000
     18     -64.2598      1.00000
     19     -64.2598      1.00000
     20     -64.2598      1.00000
     21     -64.2598      1.00000
     22     -64.2598      1.00000
     23     -64.2598      1.00000
     24     -64.2597      1.00000
     25     -64.2582      1.00000
     26     -64.2582      1.00000
     27     -64.2582      1.00000
     28     -64.2582      1.00000
     29     -64.2582      1.00000
     30     -64.2582      1.00000
     31     -64.2582      1.00000
     32     -64.2582      1.00000
     33     -64.2528      1.00000
     34     -64.2528      1.00000
     35     -64.2528      1.00000
     36     -64.2528      1.00000
     37     -64.2528      1.00000
     38     -64.2528      1.00000
     39     -64.2528      1.00000
     40     -64.2528      1.00000
     41     -64.2288      1.00000
     42     -64.2288      1.00000
     43     -64.2288      1.00000
     44     -64.2288      1.00000
     45     -64.2288      1.00000
     46     -64.2288      1.00000
     47     -64.2288      1.00000
     48     -64.2288      1.00000
     49     -51.8476      1.00000
     50     -51.8476      1.00000
     51     -51.8476      1.00000
     52     -51.8476      1.00000
     53     -51.8476      1.00000
     54     -51.8476      1.00000
     55     -51.8476      1.00000
     56     -51.8476      1.00000
     57     -51.8338      1.00000
     58     -51.8338      1.00000
     59     -51.8338      1.00000
     60     -51.8338      1.00000
     61     -51.8338      1.00000
     62     -51.8338      1.00000
     63     -51.8338      1.00000
     64     -51.8338      1.00000
     65     -51.8070      1.00000
     66     -51.8070      1.00000
     67     -51.8070      1.00000
     68     -51.8070      1.00000
     69     -51.8070      1.00000
     70     -51.8070      1.00000
     71     -51.8070      1.00000
     72     -51.8070      1.00000
     73     -47.7063      1.00000
     74     -47.7063      1.00000
     75     -47.7063      1.00000
     76     -47.7063      1.00000
     77     -47.7063      1.00000
     78     -47.7063      1.00000
     79     -47.7063      1.00000
     80     -47.7063      1.00000
     81     -47.6952      1.00000
     82     -47.6952      1.00000
     83     -47.6952      1.00000
     84     -47.6952      1.00000
     85     -47.6952      1.00000
     86     -47.6952      1.00000
     87     -47.6952      1.00000
     88     -47.6952      1.00000
     89     -47.6943      1.00000
     90     -47.6943      1.00000
     91     -47.6943      1.00000
     92     -47.6943      1.00000
     93     -47.6943      1.00000
     94     -47.6943      1.00000
     95     -47.6943      1.00000
     96     -47.6943      1.00000
     97      -9.0955      1.00000
     98      -8.4902      1.00000
     99      -8.4743      1.00000
    100      -8.4743      1.00000
    101      -8.4739      1.00000
    102      -8.4739      1.00000
    103      -8.4604      1.00000
    104      -8.1828      1.00000
    105      -8.1659      1.00000
    106      -8.1435      1.00000
    107      -8.1327      1.00000
    108      -8.1174      1.00000
    109      -8.1174      1.00000
    110      -8.1174      1.00000
    111      -8.1174      1.00000
    112      -8.0865      1.00000
    113      -8.0865      1.00000
    114      -8.0865      1.00000
    115      -8.0865      1.00000
    116      -8.0492      1.00000
    117      -8.0250      1.00000
    118      -8.0122      1.00000
    119      -7.9812      1.00000
    120      -7.7444      1.00000
    121      -7.7399      1.00000
    122      -7.7392      1.00000
    123      -7.7298      1.00000
    124      -7.7298      1.00000
    125      -7.7291      1.00000
    126      -7.7291      1.00000
    127      -7.7136      1.00000
    128      -7.7069      1.00000
    129      -2.0532      1.00000
    130      -2.0208      1.00000
    131      -2.0208      1.00000
    132      -2.0103      1.00000
    133      -2.0103      1.00000
    134      -1.9995      1.00000
    135      -1.9535      1.00000
    136      -1.9486      1.00000
    137      -1.8851      1.00000
    138      -1.8784      1.00000
    139      -1.8662      1.00000
    140      -1.8630      1.00000
    141      -1.8630      1.00000
    142      -1.8626      1.00000
    143      -1.8576      1.00000
    144      -1.8576      1.00000
    145      -1.8400      1.00000
    146      -1.8194      1.00000
    147      -1.8149      1.00000
    148      -1.8149      1.00000
    149      -1.8096      1.00000
    150      -1.8096      1.00000
    151      -1.7972      1.00000
    152      -1.7802      1.00000
    153      -1.7774      1.00000
    154      -1.7749      1.00000
    155      -1.7749      1.00000
    156      -1.7562      1.00000
    157      -1.7562      1.00000
    158      -1.7265      1.00000
    159      -1.7244      1.00000
    160      -1.7244      1.00000
    161      -1.7208      1.00000
    162      -1.7186      1.00000
    163      -1.7186      1.00000
    164      -1.7120      1.00000
    165      -1.6843      1.00000
    166      -1.6804      1.00000
    167      -1.6781      1.00000
    168      -1.6626      1.00000
    169      -1.0235      1.00000
    170      -0.9035      1.00000
    171      -0.8594      1.00000
    172      -0.7737      1.00000
    173      -0.7138      1.00000
    174      -0.4974      1.00000
    175      -0.2146      1.00000
    176      -0.2146      1.00000
    177      -0.2093      1.00000
    178      -0.2093      1.00000
    179      -0.1783      1.00000
    180      -0.1715      1.00000
    181      -0.1012      1.00000
    182      -0.0170      1.00000
    183      -0.0170      1.00000
    184      -0.0046      1.00000
    185      -0.0046      1.00000
    186       0.0469      1.00000
    187       0.0534      1.00000
    188       0.1164      1.00000
    189       0.1164      1.00000
    190       0.1199      1.00000
    191       0.1199      1.00000
    192       0.1272      1.00000
    193       0.2194      1.00000
    194       0.2922      1.00000
    195       0.2922      1.00000
    196       0.3029      1.00000
    197       0.3029      1.00000
    198       0.3107      1.00000
    199       0.3605      1.00000
    200       0.6862      1.00000
    201       0.7316      1.00000
    202       0.7704      1.00000
    203       0.7787      1.00000
    204       0.8209      1.00000
    205       0.8209      1.00000
    206       0.8351      1.00000
    207       0.8351      1.00000
    208       0.8805      1.00000
    209       0.8805      1.00000
    210       0.8997      1.00000
    211       0.8997      1.00000
    212       1.0276      1.00000
    213       1.0344      1.00000
    214       1.0344      1.00000
    215       1.0355      1.00000
    216       1.0355      1.00000
    217       1.0962      1.00000
    218       1.1365      1.00000
    219       1.1709      1.00000
    220       1.1896      1.00000
    221       1.2044      1.00000
    222       1.2044      1.00000
    223       1.2070      1.00000
    224       1.2070      1.00000
    225       1.2185      1.00000
    226       1.2352      1.00000
    227       1.2360      1.00000
    228       1.2697      1.00000
    229       1.2747      1.00000
    230       1.2848      1.00000
    231       1.3084      1.00000
    232       1.3084      1.00000
    233       1.3181      1.00000
    234       1.3196      1.00000
    235       1.3196      1.00000
    236       1.4120      1.00000
    237       1.4405      1.00000
    238       1.5368      1.00000
    239       1.6113      1.00000
    240       1.6117      1.00000
    241       1.6391      1.00000
    242       1.7104      1.00000
    243       1.8066      1.00000
    244       1.8066      1.00000
    245       1.8156      1.00000
    246       1.8156      1.00000
    247       1.8657      1.00000
    248       1.9339      1.00000
    249       1.9339      1.00000
    250       1.9397      1.00000
    251       1.9543      1.00000
    252       1.9543      1.00000
    253       2.0131      1.00000
    254       2.0190      1.00000
    255       2.0480      1.00000
    256       2.0556      1.00000
    257       2.1680      1.00000
    258       2.1796      1.00000
    259       2.1796      1.00000
    260       2.2233      1.00000
    261       2.2386      1.00000
    262       2.2386      1.00000
    263       2.3788      1.00000
    264       2.3887      1.00000
    265       2.6430      1.00000
    266       2.7508      1.00000
    267       2.7587      1.00000
    268       2.7587      1.00000
    269       2.7804      1.00000
    270       2.7804      1.00000
    271       2.7846      1.00000
    272       2.7949      1.00000
    273       2.7949      1.00000
    274       2.7980      1.00000
    275       2.7980      1.00000
    276       2.8001      1.00000
    277       2.8177      1.00000
    278       2.8414      1.00000
    279       2.8555      1.00000
    280       2.8847      1.00000
    281       2.9251      1.00000
    282       2.9421      1.00000
    283       2.9421      1.00000
    284       2.9454      1.00000
    285       2.9454      1.00000
    286       2.9802      1.00000
    287       2.9916      1.00000
    288       3.0757      1.00000
    289       3.1026      1.00000
    290       3.1459      1.00000
    291       3.1608      1.00000
    292       3.1998      1.00000
    293       3.2031      1.00000
    294       3.2031      1.00000
    295       3.2233      1.00000
    296       3.2233      1.00000
    297       3.2909      1.00000
    298       3.3148      1.00000
    299       3.3472      1.00000
    300       3.3799      1.00000
    301       3.3799      1.00000
    302       3.4190      1.00000
    303       3.4427      1.00000
    304       3.4427      1.00000
    305       3.5604      1.00000
    306       3.5718      1.00000
    307       3.5766      1.00000
    308       3.5766      1.00000
    309       3.5777      1.00000
    310       3.5777      1.00000
    311       3.6755      1.00000
    312       3.6755      1.00000
    313       3.6794      1.00000
    314       3.6794      1.00000
    315       3.7372      1.00000
    316       3.7519      1.00000
    317       3.8264      1.00000
    318       3.8907      1.00000
    319       4.0277      1.00000
    320       4.0603      1.00000
    321       4.0660      1.00000
    322       4.0660      1.00000
    323       4.0985      1.00000
    324       4.0985      1.00000
    325       4.1028      1.00000
    326       4.1028      1.00000
    327       4.1307      1.00000
    328       4.1504      1.00000
    329       4.1886      1.00000
    330       4.1886      1.00000
    331       4.1916      1.00000
    332       4.1926      1.00000
    333       4.2397      1.00000
    334       4.2769      1.00000
    335       4.3374      1.00000
    336       4.5241      1.00000
    337       4.6699      1.00000
    338       4.6771      1.00000
    339       4.6771      1.00000
    340       4.7015      1.00000
    341       4.7039      1.00000
    342       4.7039      1.00000
    343       4.7887      1.00000
    344       4.9165      1.00000
    345       5.7144      0.00000
    346       5.7144      0.00000
    347       5.7520      0.00000
    348       5.7520      0.00000
    349       5.7559      0.00000
    350       5.7686      0.00000
    351       5.7814      0.00000
    352       5.9132      0.00000
    353       5.9220      0.00000
    354       5.9479      0.00000
    355       5.9479      0.00000
    356       5.9639      0.00000
    357       6.0097      0.00000
    358       6.0220      0.00000
    359       6.0220      0.00000
    360       6.0437      0.00000
    361       6.0437      0.00000
    362       6.0625      0.00000
    363       6.0925      0.00000
    364       6.0925      0.00000
    365       6.2090      0.00000
    366       6.2141      0.00000
    367       6.2157      0.00000
    368       6.2157      0.00000
    369       6.2248      0.00000
    370       6.2248      0.00000
    371       6.2420      0.00000
    372       6.2863      0.00000
    373       6.2923      0.00000
    374       6.3663      0.00000
    375       6.3673      0.00000
    376       6.4295      0.00000
    377       6.4599      0.00000
    378       6.5080      0.00000
    379       6.5080      0.00000
    380       6.5144      0.00000
    381       6.5144      0.00000
    382       6.5452      0.00000
    383       6.6658      0.00000
    384       6.8078      0.00000
    385       7.6487      0.00000
    386       8.6221      0.00000
    387       8.8033      0.00000
    388       8.8137      0.00000
    389       8.8233      0.00000
    390       9.0574      0.00000
    391       9.1684      0.00000
    392       9.3719      0.00000
    393       9.4409      0.00000
    394       9.4409      0.00000
    395       9.4418      0.00000
    396       9.4418      0.00000
    397       9.4772      0.00000
    398       9.5115      0.00000
    399      10.1235      0.00000
    400      10.1836      0.00000
    401      10.2089      0.00000
    402      10.3502      0.00000
    403      10.6106      0.00000
    404      10.6306      0.00000
    405      10.6306      0.00000
    406      10.6402      0.00000
    407      10.6402      0.00000
    408      10.6594      0.00000
    409      10.6594      0.00000
    410      10.6637      0.00000
    411      10.6637      0.00000
    412      10.6884      0.00000
    413      10.7571      0.00000
    414      10.7571      0.00000
    415      10.7919      0.00000
    416      10.7919      0.00000
    417      10.8093      0.00000
    418      10.8514      0.00000
    419      10.8514      0.00000
    420      10.8659      0.00000
    421      10.9097      0.00000
    422      10.9097      0.00000
    423      10.9325      0.00000
    424      11.1117      0.00000
    425      11.3252      0.00000
    426      11.3406      0.00000
    427      11.5949      0.00000
    428      11.5949      0.00000
    429      11.6017      0.00000
    430      11.6017      0.00000
    431      11.6510      0.00000
    432      11.6963      0.00000
    433      11.7970      0.00000
    434      11.8081      0.00000
    435      11.8081      0.00000
    436      11.8099      0.00000
    437      11.8099      0.00000
    438      11.9286      0.00000
    439      11.9613      0.00000
    440      12.0385      0.00000
    441      12.0567      0.00000
    442      12.1272      0.00000
    443      12.1502      0.00000
    444      12.2855      0.00000
    445      12.3321      0.00000
    446      12.3321      0.00000
    447      12.3702      0.00000
[...]
   -.420E+02 0.508E+00 0.214E+02   0.428E+02 -.483E+00 -.216E+02   -.851E+00 -.262E-01 0.214E+00   0.125E-04 0.102E-05 -.639E-05
   -.420E+02 0.508E+00 0.214E+02   0.428E+02 -.483E+00 -.216E+02   -.851E+00 -.262E-01 0.214E+00   0.125E-04 0.102E-05 -.639E-05
   -.420E+02 0.508E+00 0.214E+02   0.428E+02 -.483E+00 -.216E+02   -.851E+00 -.262E-01 0.214E+00   0.125E-04 0.102E-05 -.639E-05
   -.420E+02 0.508E+00 0.214E+02   0.428E+02 -.483E+00 -.216E+02   -.851E+00 -.262E-01 0.214E+00   0.125E-04 0.102E-05 -.639E-05
   0.420E+02 -.508E+00 0.214E+02   -.428E+02 0.483E+00 -.216E+02   0.851E+00 0.262E-01 0.214E+00   -.125E-04 -.102E-05 -.639E-05
   0.420E+02 -.508E+00 0.214E+02   -.428E+02 0.483E+00 -.216E+02   0.851E+00 0.262E-01 0.214E+00   -.125E-04 -.102E-05 -.639E-05
   0.420E+02 -.508E+00 0.214E+02   -.428E+02 0.483E+00 -.216E+02   0.851E+00 0.262E-01 0.214E+00   -.125E-04 -.102E-05 -.639E-05
   0.420E+02 -.508E+00 0.214E+02   -.428E+02 0.483E+00 -.216E+02   0.851E+00 0.262E-01 0.214E+00   -.125E-04 -.102E-05 -.639E-05
   0.508E+00 -.420E+02 0.214E+02   -.483E+00 0.428E+02 -.216E+02   -.262E-01 -.851E+00 0.214E+00   0.102E-05 0.125E-04 -.639E-05
   0.508E+00 -.420E+02 0.214E+02   -.483E+00 0.428E+02 -.216E+02   -.262E-01 -.851E+00 0.214E+00   0.102E-05 0.125E-04 -.639E-05
   0.508E+00 -.420E+02 0.214E+02   -.483E+00 0.428E+02 -.216E+02   -.262E-01 -.851E+00 0.214E+00   0.102E-05 0.125E-04 -.639E-05
   0.508E+00 -.420E+02 0.214E+02   -.483E+00 0.428E+02 -.216E+02   -.262E-01 -.851E+00 0.214E+00   0.102E-05 0.125E-04 -.639E-05
   -.508E+00 0.420E+02 0.214E+02   0.483E+00 -.428E+02 -.216E+02   0.262E-01 0.851E+00 0.214E+00   -.102E-05 -.125E-04 -.639E-05
   -.508E+00 0.420E+02 0.214E+02   0.483E+00 -.428E+02 -.216E+02   0.262E-01 0.851E+00 0.214E+00   -.102E-05 -.125E-04 -.639E-05
   -.508E+00 0.420E+02 0.214E+02   0.483E+00 -.428E+02 -.216E+02   0.262E-01 0.851E+00 0.214E+00   -.102E-05 -.125E-04 -.639E-05
   -.508E+00 0.420E+02 0.214E+02   0.483E+00 -.428E+02 -.216E+02   0.262E-01 0.851E+00 0.214E+00   -.102E-05 -.125E-04 -.639E-05
   -.965E-07 -.128E-07 -.251E+02   0.121E-12 -.128E-12 0.241E+02   0.872E-19 0.108E-18 0.102E+01   -.302E-11 -.119E-10 -.244E-03
   -.965E-07 -.128E-07 -.251E+02   0.206E-12 -.114E-12 0.241E+02   -.119E-18 -.244E-18 0.102E+01   0.446E-11 -.118E-10 -.244E-03
   -.965E-07 -.128E-07 -.251E+02   0.178E-12 0.426E-13 0.241E+02   0.305E-19 -.271E-19 0.102E+01   -.683E-11 0.286E-11 -.244E-03
   -.965E-07 -.128E-07 -.251E+02   0.178E-12 0.284E-13 0.241E+02   -.154E-18 0.000E+00 0.102E+01   -.261E-11 0.144E-10 -.244E-03
   -.128E-07 -.965E-07 -.251E+02   0.853E-13 -.568E-13 0.241E+02   -.157E-19 -.686E-19 0.102E+01   -.149E-10 0.527E-11 -.244E-03
   -.128E-07 -.965E-07 -.251E+02   -.284E-13 -.568E-13 0.241E+02   -.870E-19 -.508E-19 0.102E+01   0.189E-10 0.157E-10 -.244E-03
   -.128E-07 -.965E-07 -.251E+02   0.568E-13 0.114E-12 0.241E+02   0.309E-18 -.847E-20 0.102E+01   -.333E-11 -.432E-11 -.244E-03
   -.128E-07 -.965E-07 -.251E+02   0.568E-13 0.114E-12 0.241E+02   0.244E-19 0.108E-18 0.102E+01   0.735E-13 -.153E-10 -.244E-03
   -.965E-07 -.128E-07 -.251E+02   0.924E-13 0.924E-13 0.241E+02   0.113E-18 0.244E-18 0.102E+01   0.122E-10 -.103E-10 -.244E-03
   -.965E-07 -.127E-07 -.251E+02   0.149E-12 0.853E-13 0.241E+02   -.906E-19 0.190E-18 0.102E+01   -.159E-10 -.936E-11 -.244E-03
   -.965E-07 -.128E-07 -.251E+02   0.114E-12 -.444E-14 0.241E+02   0.872E-19 0.271E-19 0.102E+01   0.549E-11 0.130E-10 -.244E-03
   -.965E-07 -.128E-07 -.251E+02   0.114E-12 -.542E-13 0.241E+02   -.440E-19 0.108E-18 0.102E+01   -.645E-11 0.234E-10 -.244E-03
   -.128E-07 -.965E-07 -.251E+02   0.355E-13 0.442E-14 0.241E+02   -.104E-18 -.254E-19 0.102E+01   0.174E-10 -.201E-11 -.244E-03
   -.128E-07 -.965E-07 -.251E+02   0.948E-13 0.612E-13 0.241E+02   -.619E-20 -.201E-18 0.102E+01   -.966E-11 -.115E-10 -.244E-03
   -.128E-07 -.965E-07 -.251E+02   0.693E-14 0.121E-12 0.241E+02   -.333E-18 -.219E-18 0.102E+01   0.424E-11 0.531E-12 -.244E-03
   -.128E-07 -.964E-07 -.251E+02   0.948E-13 0.692E-14 0.241E+02   0.959E-19 -.678E-20 0.102E+01   -.516E-11 0.116E-10 -.244E-03
   0.442E-08 -.319E-07 -.204E+02   0.101E-12 0.355E-14 0.191E+02   -.210E-17 0.651E-18 0.121E+01   0.112E-11 0.637E-11 -.118E-03
   0.443E-08 -.319E-07 -.204E+02   0.144E-12 0.000E+00 0.191E+02   0.651E-18 -.119E-17 0.121E+01   -.344E-11 0.113E-10 -.118E-03
   0.442E-08 -.319E-07 -.204E+02   0.166E-12 0.110E-12 0.191E+02   0.320E-17 -.651E-18 0.121E+01   0.945E-11 -.377E-11 -.118E-03
   0.442E-08 -.319E-07 -.204E+02   0.109E-12 0.114E-12 0.191E+02   -.168E-17 -.542E-18 0.121E+01   -.814E-12 -.129E-10 -.118E-03
   -.319E-07 0.442E-08 -.204E+02   -.128E-12 -.639E-13 0.191E+02   -.223E-17 -.867E-18 0.121E+01   0.123E-10 -.411E-11 -.118E-03
   -.318E-07 0.442E-08 -.204E+02   -.124E-12 -.568E-13 0.191E+02   -.952E-18 -.130E-17 0.121E+01   -.142E-10 -.121E-10 -.118E-03
   -.319E-07 0.441E-08 -.204E+02   -.135E-12 -.121E-12 0.191E+02   0.300E-17 -.325E-18 0.121E+01   0.390E-11 0.954E-12 -.118E-03
   -.319E-07 0.441E-08 -.204E+02   -.103E-12 -.128E-12 0.191E+02   0.105E-17 0.184E-17 0.121E+01   -.301E-11 0.146E-10 -.118E-03
   0.442E-08 -.319E-07 -.204E+02   0.568E-13 0.560E-13 0.191E+02   -.393E-18 0.000E+00 0.121E+01   -.683E-11 0.828E-11 -.118E-03
   0.443E-08 -.319E-07 -.204E+02   0.995E-13 0.105E-12 0.191E+02   0.474E-18 0.651E-18 0.121E+01   0.670E-11 0.901E-11 -.118E-03
   0.442E-08 -.318E-07 -.204E+02   0.568E-13 0.114E-12 0.191E+02   0.164E-17 -.173E-17 0.121E+01   -.452E-11 -.121E-10 -.118E-03
   0.443E-08 -.318E-07 -.204E+02   0.995E-13 0.120E-12 0.191E+02   -.156E-18 0.239E-17 0.121E+01   0.608E-11 -.797E-11 -.118E-03
   -.319E-07 0.443E-08 -.204E+02   -.102E-12 -.170E-12 0.191E+02   0.234E-18 0.325E-18 0.121E+01   -.825E-11 -.352E-11 -.118E-03
   -.318E-07 0.443E-08 -.204E+02   -.400E-13 -.107E-12 0.191E+02   -.306E-17 0.130E-17 0.121E+01   0.123E-11 0.764E-11 -.118E-03
   -.319E-07 0.443E-08 -.204E+02   -.116E-12 -.155E-12 0.191E+02   -.138E-17 0.000E+00 0.121E+01   -.784E-12 -.518E-12 -.118E-03
   -.319E-07 0.444E-08 -.204E+02   -.251E-13 -.106E-12 0.191E+02   0.185E-17 -.108E-17 0.121E+01   -.143E-11 -.885E-11 -.118E-03
 -----------------------------------------------------------------------------------------------
   -.768E-06 -.768E-06 -.424E+02   0.291E-12 0.453E-12 0.682E-12   -.774E-15 0.110E-15 0.425E+02   -.577E-11 0.244E-11 -.599E-02
 
 
 POSITION                                       TOTAL-FORCE (eV/Angst)
 -----------------------------------------------------------------------------------
      1.37029      1.36294      1.26328        -0.000022      0.000280      0.000074
      6.62025      1.54625      1.26328        -0.000022      0.000280      0.000074
      1.55359      6.61291      1.26328        -0.000022      0.000280      0.000074
      6.80355      6.79621      1.26328        -0.000022      0.000280      0.000074
      4.06298      4.07033      1.26328         0.000022     -0.000280      0.000074
      9.31295      4.25363      1.26328         0.000022     -0.000280      0.000074
      4.24629      9.32029      1.26328         0.000022     -0.000280      0.000074
      9.49625      9.50359      1.26328         0.000022     -0.000280      0.000074
      1.44534      3.97133      9.08609        -0.000280      0.000022      0.000074
      6.69531      4.15464      9.08609        -0.000280      0.000022      0.000074
      1.62865      9.22129      9.08609        -0.000280      0.000022      0.000074
      6.87861      9.40460      9.08609        -0.000280      0.000022      0.000074
      3.98793      1.46194      9.08609         0.000280     -0.000022      0.000074
      9.23789      1.64524      9.08609         0.000280     -0.000022      0.000074
      4.17123      6.71190      9.08609         0.000280     -0.000022      0.000074
      9.42119      6.89521      9.08609         0.000280     -0.000022      0.000074
      1.34635      1.35369      6.47849         0.000022     -0.000280      0.000074
      6.59631      1.53700      6.47849         0.000022     -0.000280      0.000074
      1.52965      6.60365      6.47849         0.000022     -0.000280      0.000074
      6.77962      6.78696      6.47849         0.000022     -0.000280      0.000074
      4.08692      4.07958      6.47849        -0.000022      0.000280      0.000074
      9.33688      4.26288      6.47849        -0.000022      0.000280      0.000074
      4.27023      9.32954      6.47849        -0.000022      0.000280      0.000074
      9.52019      9.51285      6.47849        -0.000022      0.000280      0.000074
      3.97867      1.43800      3.87088        -0.000280      0.000022      0.000074
      9.22864      1.62131      3.87088        -0.000280      0.000022      0.000074
      4.16198      6.68797      3.87088        -0.000280      0.000022      0.000074
      9.41194      6.87127      3.87088        -0.000280      0.000022      0.000074
      1.45460      3.99527      3.87088         0.000280     -0.000022      0.000074
      6.70456      4.17857      3.87088         0.000280     -0.000022      0.000074
      1.63790      9.24523      3.87088         0.000280     -0.000022      0.000074
      6.88787      9.42854      3.87088         0.000280     -0.000022      0.000074
      0.00000      0.00000      5.25045        -0.000000      0.000000     -0.000731
      5.24996      0.18330      5.25045        -0.000000      0.000000     -0.000731
      0.18330      5.24996      5.25045        -0.000000      0.000000     -0.000731
      5.43327      5.43327      5.25045        -0.000000      0.000000     -0.000731
      2.62498      0.09165      2.64285        -0.000000      0.000000     -0.000731
      7.87495      0.27496      2.64285        -0.000000      0.000000     -0.000731
      2.80829      5.34162      2.64285        -0.000000      0.000000     -0.000731
      8.05825      5.52492      2.64285        -0.000000      0.000000     -0.000731
      2.71663      2.71663      0.03524        -0.000000      0.000000     -0.000731
      7.96660      2.89994      0.03524        -0.000000      0.000000     -0.000731
      2.89994      7.96660      0.03524        -0.000000      0.000000     -0.000731
      8.14990      8.14990      0.03524        -0.000000      0.000000     -0.000731
      0.09165      2.62498      7.85806        -0.000000      0.000000     -0.000731
      5.34162      2.80829      7.85806        -0.000000      0.000000     -0.000731
      0.27496      7.87495      7.85806        -0.000000      0.000000     -0.000731
      5.52492      8.05825      7.85806        -0.000000      0.000000     -0.000731
      0.00000      0.00000      0.04581        -0.000000      0.000000      0.000583
      5.24996      0.18330      0.04581        -0.000000      0.000000      0.000583
      0.18330      5.24996      0.04581        -0.000000      0.000000      0.000583
      5.43327      5.43327      0.04581        -0.000000      0.000000      0.000583
      2.62498      0.09165      7.86862        -0.000000      0.000000      0.000583
      7.87495      0.27496      7.86862        -0.000000      0.000000      0.000583
      2.80829      5.34162      7.86862        -0.000000      0.000000      0.000583
      8.05825      5.52492      7.86862        -0.000000      0.000000      0.000583
      2.71663      2.71663      5.26102        -0.000000      0.000000      0.000583
      7.96660      2.89994      5.26102        -0.000000      0.000000      0.000583
      2.89994      7.96660      5.26102        -0.000000      0.000000      0.000583
      8.14990      8.14990      5.26102        -0.000000      0.000000      0.000583
      0.09165      2.62498      2.65341        -0.000000      0.000000      0.000583
      5.34162      2.80829      2.65341        -0.000000      0.000000      0.000583
      0.27496      7.87495      2.65341        -0.000000      0.000000      0.000583
      5.52492      8.05825      2.65341        -0.000000      0.000000      0.000583
 -----------------------------------------------------------------------------------
    total drift:                               -0.000001     -0.000001      0.023689


--------------------------------------------------------------------------------------------------------



  FREE ENERGIE OF THE ION-ELECTRON SYSTEM (eV)
  ---------------------------------------------------
  free  energy   TOTEN  =      -327.60670766 eV

  energy  without entropy=     -327.60670766  energy(sigma->0) =     -327.60670766
 


--------------------------------------------------------------------------------------------------------


    POTLOK:  cpu time    0.1315: real time    0.1321


--------------------------------------------------------------------------------------------------------


 writing wavefunctions
     LOOP+:  cpu time 2841.3344: real time 3354.8266
    4ORBIT:  cpu time    0.0000: real time    0.0000
 


 total charge     
 
# of ion       s       p       d       tot
------------------------------------------
    1        1.314   2.409   0.000   3.723
    2        1.314   2.409   0.000   3.723
    3        1.314   2.409   0.000   3.723
    4        1.314   2.409   0.000   3.723
    5        1.314   2.409   0.000   3.723
    6        1.314   2.409   0.000   3.723
    7        1.314   2.409   0.000   3.723
    8        1.314   2.409   0.000   3.723
    9        1.314   2.409   0.000   3.723
   10        1.314   2.409   0.000   3.723
   11        1.314   2.409   0.000   3.723
   12        1.314   2.409   0.000   3.723
   13        1.314   2.409   0.000   3.723
   14        1.314   2.409   0.000   3.723
   15        1.314   2.409   0.000   3.723
   16        1.314   2.409   0.000   3.723
   17        1.314   2.409   0.000   3.723
   18        1.314   2.409   0.000   3.723
   19        1.314   2.409   0.000   3.723
   20        1.314   2.409   0.000   3.723
   21        1.314   2.409   0.000   3.723
   22        1.314   2.409   0.000   3.723
   23        1.314   2.409   0.000   3.723
   24        1.314   2.409   0.000   3.723
   25        1.314   2.409   0.000   3.723
   26        1.314   2.409   0.000   3.723
   27        1.314   2.409   0.000   3.723
   28        1.314   2.409   0.000   3.723
   29        1.314   2.409   0.000   3.723
   30        1.314   2.409   0.000   3.723
   31        1.314   2.409   0.000   3.723
   32        1.314   2.409   0.000   3.723
   33        0.259   6.202   8.916  15.377
   34        0.259   6.202   8.916  15.377
   35        0.259   6.202   8.916  15.377
   36        0.259   6.202   8.916  15.377
   37        0.259   6.202   8.916  15.377
   38        0.259   6.202   8.916  15.377
   39        0.259   6.202   8.916  15.377
   40        0.259   6.202   8.916  15.377
   41        0.259   6.202   8.916  15.377
   42        0.259   6.202   8.916  15.377
   43        0.259   6.202   8.916  15.377
   44        0.259   6.202   8.916  15.377
   45        0.259   6.202   8.916  15.377
   46        0.259   6.202   8.916  15.377
   47        0.259   6.202   8.916  15.377
   48        0.259   6.202   8.916  15.377
   49        0.349   6.349   5.821  12.519
   50        0.349   6.349   5.821  12.519
   51        0.349   6.349   5.821  12.519
   52        0.349   6.349   5.821  12.519
   53        0.349   6.349   5.821  12.519
   54        0.349   6.349   5.821  12.519
   55        0.349   6.349   5.821  12.519
   56        0.349   6.349   5.821  12.519
   57        0.349   6.349   5.821  12.519
   58        0.349   6.349   5.821  12.519
   59        0.349   6.349   5.821  12.519
   60        0.349   6.349   5.821  12.519
   61        0.349   6.349   5.821  12.519
   62        0.349   6.349   5.821  12.519
   63        0.349   6.349   5.821  12.519
   64        0.349   6.349   5.821  12.519
--------------------------------------------------
tot         51.779 277.895 235.795 565.469
 


 magnetization (x)
 
# of ion       s       p       d       tot
------------------------------------------
    1       -0.001  -0.017   0.000  -0.018
    2       -0.001  -0.017   0.000  -0.018
    3       -0.001  -0.017   0.000  -0.018
    4       -0.001  -0.017   0.000  -0.018
    5       -0.001  -0.017   0.000  -0.018
    6       -0.001  -0.017   0.000  -0.018
    7       -0.001  -0.017   0.000  -0.018
    8       -0.001  -0.017   0.000  -0.018
    9        0.001   0.017   0.000   0.018
   10        0.001   0.017   0.000   0.018
   11        0.001   0.017   0.000   0.018
   12        0.001   0.017   0.000   0.018
   13        0.001   0.017   0.000   0.018
   14        0.001   0.017   0.000   0.018
   15        0.001   0.017   0.000   0.018
   16        0.001   0.017   0.000   0.018
   17       -0.001  -0.017   0.000  -0.018
   18       -0.001  -0.017   0.000  -0.018
   19       -0.001  -0.017   0.000  -0.018
   20       -0.001  -0.017   0.000  -0.018
   21       -0.001  -0.017   0.000  -0.018
   22       -0.001  -0.017   0.000  -0.018
   23       -0.001  -0.017   0.000  -0.018
   24       -0.001  -0.017   0.000  -0.018
   25        0.001   0.017   0.000   0.018
   26        0.001   0.017   0.000   0.018
   27        0.001   0.017   0.000   0.018
   28        0.001   0.017   0.000   0.018
   29        0.001   0.017   0.000   0.018
   30        0.001   0.017   0.000   0.018
   31        0.001   0.017   0.000   0.018
   32        0.001   0.017   0.000   0.018
   33        0.000   0.000   0.001   0.001
   34        0.000   0.000   0.001   0.001
   35        0.000   0.000   0.001   0.001
   36        0.000   0.000   0.001   0.001
   37       -0.000  -0.000  -0.001  -0.002
   38       -0.000  -0.000  -0.001  -0.002
   39       -0.000  -0.000  -0.001  -0.002
   40       -0.000  -0.000  -0.001  -0.002
   41        0.000   0.000   0.001   0.001
   42        0.000   0.000   0.001   0.001
   43        0.000   0.000   0.001   0.001
   44        0.000   0.000   0.001   0.001
   45       -0.000  -0.000  -0.001  -0.002
   46       -0.000  -0.000  -0.001  -0.002
   47       -0.000  -0.000  -0.001  -0.002
   48       -0.000  -0.000  -0.001  -0.002
   49        0.020   0.053   3.670   3.743
   50        0.020   0.053   3.670   3.743
   51        0.020   0.053   3.670   3.743
   52        0.020   0.053   3.670   3.743
   53       -0.020  -0.053  -3.670  -3.743
   54       -0.020  -0.053  -3.670  -3.743
   55       -0.020  -0.053  -3.670  -3.743
   56       -0.020  -0.053  -3.670  -3.743
   57        0.020   0.053   3.670   3.743
   58        0.020   0.053   3.670   3.743
   59        0.020   0.053   3.670   3.743
   60        0.020   0.053   3.670   3.743
   61       -0.020  -0.053  -3.670  -3.743
   62       -0.020  -0.053  -3.670  -3.743
   63       -0.020  -0.053  -3.670  -3.743
   64       -0.020  -0.053  -3.670  -3.743
--------------------------------------------------
tot         -0.001   0.001  -0.001  -0.001
 
 BZINTS: Fermi energy:  4.920747;688.000000 electrons
         Band energy:***********;  BLOECHL correction:  0.000000

 total amount of memory used by VASP MPI-rank0   661185. kBytes
=======================================================================

   base      :      30000. kBytes
   nonl-proj :     488484. kBytes
   fftplans  :       4588. kBytes
   grid      :      69719. kBytes
   one-center:       1990. kBytes
   wavefun   :      66404. kBytes
 
  
  
 General timing and accounting informations for this job:
 ========================================================
  
                  Total CPU time used (sec):     2954.076
                            User time (sec):     2931.044
                          System time (sec):       23.032
                         Elapsed time (sec):     3471.261
  
                   Maximum memory used (kb):     1158940.
                   Average memory used (kb):           0.
  
                          Minor page faults:       528196
                          Major page faults:         5252
                 Voluntary context switches:         8108
