       N       E                     dE             d eps       ncg     rms          rms(c)
DAV:   1    -0.326792024044E+03   -0.32679E+03   -0.18153E+01  3584   0.311E+01    0.148E+00
DAV:   2    -0.327254457086E+03   -0.46243E+00   -0.47611E+00  2048   0.475E+00    0.153E+00
DAV:   3    -0.327253328381E+03    0.11287E-02   -0.20507E-01  2560   0.132E+00    0.867E-01
DAV:   4    -0.327252119817E+03    0.12086E-02   -0.18637E-02  2560   0.397E-01    0.361E-01
DAV:   5    -0.327252078686E+03    0.41131E-04   -0.15054E-03  2560   0.836E-02    0.260E-01
DAV:   6    -0.327252008718E+03    0.69969E-04   -0.19379E-03  2560   0.128E-01    0.650E-02
DAV:   7    -0.327252053739E+03   -0.45021E-04   -0.16642E-04  2048   0.265E-02    0.339E-02
DAV:   8    -0.327252065484E+03   -0.11746E-04   -0.71661E-05  2560   0.171E-02    0.200E-02
DAV:   9    -0.327252068138E+03   -0.26537E-05   -0.13555E-05  2560   0.904E-03    0.111E-02
DAV:  10    -0.327252070583E+03   -0.24445E-05   -0.11251E-05  2560   0.496E-03    0.395E-03
DAV:  11    -0.327252070929E+03   -0.34599E-06   -0.12960E-06  2048   0.233E-03    0.292E-03
DAV:  12    -0.327252071234E+03   -0.30553E-06   -0.39289E-07  2560   0.110E-03    0.178E-03
DAV:  13    -0.327252071484E+03   -0.24961E-06   -0.64772E-07  2560   0.114E-03    0.135E-03
DAV:  14    -0.327252071508E+03   -0.24069E-07   -0.18698E-07  2048   0.870E-04    0.511E-04
DAV:  15    -0.327252071491E+03    0.16720E-07   -0.11926E-08  1536   0.328E-04    0.330E-04
DAV:  16    -0.327252071476E+03    0.15352E-07   -0.12283E-08  1024   0.250E-04    0.205E-04
DAV:  17    -0.327252071479E+03   -0.31141E-08   -0.10654E-08  1024   0.238E-04
   1 F= -.32725207E+03 E0= -.32725207E+03  d E =-.208774E-33  mag=     0.0000
