       N       E                     dE             d eps       ncg     rms          ort
SDA:   1    -0.819401418364E+02   -0.81940E+02    0.00000E+00  7488   0.237E-04 0.000E+00
CGA:   2    -0.819401505868E+02   -0.87504E-05   -0.55870E-06  7488   0.127E-04 0.172E-04
CGA:   3    -0.819401554536E+02   -0.48668E-05   -0.25916E-06  7488   0.789E-05 0.992E-05
CGA:   4    -0.819401585550E+02   -0.31014E-05   -0.14839E-06  7488   0.537E-05 0.646E-05
CGA:   5    -0.819401607749E+02   -0.22198E-05   -0.97272E-07  7488   0.389E-05 0.454E-05
CGA:   6    -0.819401626041E+02   -0.18293E-05   -0.72005E-07  7488   0.294E-05 0.336E-05
CGA:   7    -0.819401644263E+02   -0.18221E-05   -0.58884E-07  7488   0.220E-05 0.251E-05
CGA:   8    -0.819401662118E+02   -0.17855E-05   -0.44690E-07  7488   0.170E-05 0.191E-05
CGA:   9    -0.819401678247E+02   -0.16128E-05   -0.31105E-07  7488   0.137E-05 0.151E-05
CGA:  10    -0.819401700825E+02   -0.22579E-05   -0.26068E-07  7488   0.110E-05 0.122E-05
CGA:  11    -0.819401715923E+02   -0.15098E-05   -0.16150E-07  7488   0.936E-06 0.996E-06
CGA:  12    -0.819401718419E+02   -0.24961E-06   -0.71256E-08  7488   0.877E-06 0.903E-06
CGA:  13    -0.819401714271E+02    0.41485E-06   -0.12128E-06  7488   0.105E-05-0.472E-06
CGA:  14    -0.819401719623E+02   -0.53518E-06   -0.40162E-08  7488   0.946E-06 0.995E-06
CGA:  15    -0.819401721127E+02   -0.15039E-06   -0.31100E-08  7488   0.871E-06 0.905E-06
CGA:  16    -0.819401722392E+02   -0.12655E-06   -0.29533E-08  7488   0.806E-06 0.833E-06
CGA:  17    -0.819401724450E+02   -0.20582E-06   -0.45723E-08  7488   0.698E-06 0.730E-06
CGA:  18    -0.819401727204E+02   -0.27541E-06   -0.54614E-08  7488   0.594E-06 0.604E-06
CGA:  19    -0.819401728743E+02   -0.15384E-06   -0.27533E-08  7488   0.504E-06 0.535E-06
CGA:  20    -0.819401731102E+02   -0.23590E-06   -0.35337E-08  7488   0.444E-06 0.462E-06
CGA:  21    -0.819401733581E+02   -0.24794E-06   -0.31710E-08  7488   0.384E-06 0.391E-06
CGA:  22    -0.819401734899E+02   -0.13179E-06   -0.13308E-08  7488   0.360E-06 0.360E-06
CGA:  23    -0.819401737312E+02   -0.24133E-06   -0.20597E-08  7488   0.320E-06 0.325E-06
CGA:  24    -0.819401738884E+02   -0.15714E-06   -0.11391E-08  7488   0.293E-06 0.295E-06
CGA:  25    -0.819401740092E+02   -0.12080E-06   -0.82412E-09  7488   0.265E-06 0.270E-06
CGA:  26    -0.819401740958E+02   -0.86664E-07   -0.57540E-09  7488   0.259E-06 0.254E-06
CGA:  27    -0.819401741696E+02   -0.73789E-07   -0.53309E-09  7488   0.253E-06 0.234E-06
CGA:  28    -0.819401742211E+02   -0.51437E-07   -0.41592E-09  7488   0.238E-06 0.218E-06
CGA:  29    -0.819401742698E+02   -0.48720E-07   -0.42244E-09  7488   0.228E-06 0.203E-06
CGA:  30    -0.819401743039E+02   -0.34077E-07   -0.32461E-09  7488   0.210E-06 0.185E-06
CGA:  31    -0.819401743350E+02   -0.31156E-07   -0.31832E-09  7488   0.202E-06 0.178E-06
CGA:  32    -0.819401743604E+02   -0.25386E-07   -0.28003E-09  7488   0.187E-06 0.176E-06
CGA:  33    -0.819401743824E+02   -0.21966E-07   -0.26192E-09  7488   0.187E-06 0.165E-06
CGA:  34    -0.819401744011E+02   -0.18739E-07   -0.24683E-09  7488   0.202E-06 0.145E-06
CGA:  35    -0.819401744198E+02   -0.18677E-07   -0.32203E-09  7488   0.218E-06 0.105E-06
CGA:  36    -0.819401744287E+02   -0.89385E-08   -0.17750E-09  7488   0.168E-06 0.162E-06
   1 F= -.81940174E+02 E0= -.81940174E+02  d E =0.000000E+00  mag=    -0.0000    -0.0000    -0.0000
