 vasp.5.4.4.18Apr17-6-g9f103f2a35 (build Oct 30 2023 17:49:44) complex          
  
 executed on             LinuxIFC date 2024.12.11  06:03:44
 running on  256 total cores
 distrk:  each k-point on  256 cores,    1 groups
 distr:  one band on NCORES_PER_BAND=  32 cores,    8 groups


--------------------------------------------------------------------------------------------------------


 INCAR:
 POTCAR:    PAW_PBE S 06Sep2000                   
 POTCAR:     PAW_PBE Cu_pv 06Sep2000              
 POTCAR:     PAW_PBE Fe_pv 02Aug2007              
 POTCAR:    PAW_PBE S 06Sep2000                   
   SHA256 =  0fc7481fb0695f01bdc6462160264c5c84044ae9ec85a907d398b887a2bc3132 S/
   COPYR  = (c) Copyright 06Sep2000 Georg Kresse                                
   COPYR  = This file is part of the software VASP. Any use, copying, and all ot
   COPYR  = If you do not have a valid VASP license, you may not use, copy or di
   VRHFIN =S : s2p4                                                             
   LEXCH  = PE                                                                  
   EATOM  =   276.8230 eV,   20.3459 Ry                                         
                                                                                
   TITEL  = PAW_PBE S 06Sep2000                                                 
   LULTRA =        F    use ultrasoft PP ?                                      
   IUNSCR =        1    unscreen: 0-lin 1-nonlin 2-no                           
   RPACOR =    1.500    partial core radius                                     
   POMASS =   32.066; ZVAL   =    6.000    mass and valenz                      
   RCORE  =    1.900    outmost cutoff radius                                   
   RWIGS  =    2.200; RWIGS  =    1.164    wigner-seitz radius (au A)           
   ENMAX  =  258.689; ENMIN  =  194.016 eV                                      
   ICORE  =        2    local potential                                         
   LCOR   =        T    correct aug charges                                     
   LPAW   =        T    paw PP                                                  
   EAUG   =  335.092                                                            
   DEXC   =    0.000                                                            
   RMAX   =    1.942    core radius for proj-oper                               
   RAUG   =    1.300    factor for augmentation sphere                          
   RDEP   =    1.954    radius for radial grids                                 
   RDEPT  =    1.744    core radius for aug-charge                              
                                                                                
   Atomic configuration                                                         
    6 entries                                                                   
     n  l   j            E        occ.                                          
     1  0  0.50     -2405.8406   2.0000                                         
     2  0  0.50      -211.7007   2.0000                                         
     2  1  1.50      -156.4958   6.0000                                         
     3  0  0.50       -17.2562   2.0000                                         
     3  1  0.50        -7.0085   4.0000                                         
     3  2  1.50        -6.8029   0.0000                                         
   Description                                                                  
     l       E           TYP  RCUT    TYP  RCUT                                 
     0    -17.2561641     23  1.900                                             
     0    -15.8743224     23  1.900                                             
     1     -7.0085400     23  1.900                                             
     1     -2.7779785     23  1.900                                             
     2     -6.8029130     23  1.900                                             
  local pseudopotential read in
  partial core-charges read in
  partial kinetic energy density read in
  atomic valenz-charges read in
  non local Contribution for L=           0  read in
    real space projection operators read in
  non local Contribution for L=           0  read in
    real space projection operators read in
  non local Contribution for L=           1  read in
    real space projection operators read in
  non local Contribution for L=           1  read in
    real space projection operators read in
    PAW grid and wavefunctions read in
 
   number of l-projection  operators is LMAX  =           4
   number of lm-projection operators is LMMAX =           8
 
 POTCAR:     PAW_PBE Cu_pv 06Sep2000              
   SHA256 =  cb7b504e2ea725fe1f25c85a9ac77d4012ce94cd394135b722c4e25ec297f1cb Cu
   COPYR  = (c) Copyright 06Sep2000 Georg Kresse                                
   COPYR  = This file is part of the software VASP. Any use, copying, and all ot
   COPYR  = If you do not have a valid VASP license, you may not use, copy or di
   VRHFIN =Cu: d10 p1                                                           
   LEXCH  = PE                                                                  
   EATOM  =  4120.1201 eV,  302.8203 Ry                                         
                                                                                
   TITEL  = PAW_PBE Cu_pv 06Sep2000                                             
   LULTRA =        F    use ultrasoft PP ?                                      
   IUNSCR =        1    unscreen: 0-lin 1-nonlin 2-no                           
   RPACOR =    1.500    partial core radius                                     
   POMASS =   63.546; ZVAL   =   17.000    mass and valenz                      
   RCORE  =    2.000    outmost cutoff radius                                   
   RWIGS  =    2.000; RWIGS  =    1.058    wigner-seitz radius (au A)           
   ENMAX  =  368.648; ENMIN  =  276.486 eV                                      
   RCLOC  =    1.304    cutoff for local pot                                    
   LCOR   =        T    correct aug charges                                     
   LPAW   =        T    paw PP                                                  
   EAUG   =  758.233                                                            
   DEXC   =    0.000                                                            
   RMAX   =    2.046    core radius for proj-oper                               
   RAUG   =    1.300    factor for augmentation sphere                          
   RDEP   =    2.025    radius for radial grids                                 
   RDEPT  =    1.558    core radius for aug-charge                              
                                                                                
   Atomic configuration                                                         
    8 entries                                                                   
     n  l   j            E        occ.                                          
     1  0  0.50     -8850.2467   2.0000                                         
     2  0  0.50     -1062.3498   2.0000                                         
     2  1  1.50      -916.8226   6.0000                                         
     3  0  0.50      -114.6929   2.0000                                         
     3  1  1.50       -72.1325   6.0000                                         
     3  2  2.50        -5.0394  10.0000                                         
     4  0  0.50        -4.6097   1.0000                                         
     4  3  2.50        -1.3606   0.0000                                         
   Description                                                                  
     l       E           TYP  RCUT    TYP  RCUT                                 
     1    -72.1324777     23  1.700                                             
     1     -1.3605826     23  1.700                                             
     2     -5.0393776     23  2.000                                             
     2     -6.3999602     23  2.000                                             
     0     -4.6097062     23  1.800                                             
     0     14.1620818     23  1.800                                             
  local pseudopotential read in
  partial core-charges read in
  partial kinetic energy density read in
  atomic valenz-charges read in
  non local Contribution for L=           1  read in
    real space projection operators read in
  non local Contribution for L=           1  read in
    real space projection operators read in
  non local Contribution for L=           2  read in
    real space projection operators read in
  non local Contribution for L=           2  read in
    real space projection operators read in
  non local Contribution for L=           0  read in
    real space projection operators read in
  non local Contribution for L=           0  read in
    real space projection operators read in
    PAW grid and wavefunctions read in
 
   number of l-projection  operators is LMAX  =           6
   number of lm-projection operators is LMMAX =          18
 
 POTCAR:     PAW_PBE Fe_pv 02Aug2007              
   SHA256 =  5d22e414b1f82158bf2c7ecb8b97b28fd0923e48cadc1c3bf74d524558f5dd32 Fe
   COPYR  = (c) Copyright 02Aug2007 Georg Kresse                                
   COPYR  = This file is part of the software VASP. Any use, copying, and all ot
   COPYR  = If you do not have a valid VASP license, you may not use, copy or di
   VRHFIN =Fe:  3pd7s1                                                          
   LEXCH  = PE                                                                  
   EATOM  =  2457.4239 eV,  180.6156 Ry                                         
                                                                                
   TITEL  = PAW_PBE Fe_pv 02Aug2007                                             
   LULTRA =        F    use ultrasoft PP ?                                      
   IUNSCR =        1    unscreen: 0-lin 1-nonlin 2-no                           
   RPACOR =    1.750    partial core radius                                     
   POMASS =   55.847; ZVAL   =   14.000    mass and valenz                      
   RCORE  =    2.200    outmost cutoff radius                                   
   RWIGS  =    2.200; RWIGS  =    1.164    wigner-seitz radius (au A)           
   ENMAX  =  293.238; ENMIN  =  219.928 eV                                      
   ICORE  =        3    local potential                                         
   LCOR   =        T    correct aug charges                                     
   LPAW   =        T    paw PP                                                  
   EAUG   =  578.342                                                            
   DEXC   =    0.000                                                            
   RMAX   =    2.249    core radius for proj-oper                               
   RAUG   =    1.300    factor for augmentation sphere                          
   RDEP   =    2.296    radius for radial grids                                 
   RDEPT  =    1.766    core radius for aug-charge                              
                                                                                
   Atomic configuration                                                         
    8 entries                                                                   
     n  l   j            E        occ.                                          
     1  0  0.50     -6993.8440   2.0000                                         
     2  0  0.50      -814.6047   2.0000                                         
     2  1  1.50      -693.3689   6.0000                                         
     3  0  0.50       -89.4732   2.0000                                         
     3  1  1.50       -55.6373   6.0000                                         
     3  2  2.50        -3.8151   7.0000                                         
     4  0  0.50        -4.2551   1.0000                                         
     4  3  2.50        -1.3606   0.0000                                         
   Description                                                                  
     l       E           TYP  RCUT    TYP  RCUT                                 
     1    -55.6372668     23  2.000                                             
     1     -5.4423304     23  2.000                                             
     2     -3.8151096     23  2.200                                             
     2     -5.1756922     23  2.200                                             
     0     -4.2550951     23  2.200                                             
     0     27.2116520     23  2.200                                             
     3     -1.3605826     23  2.200                                             
  local pseudopotential read in
  partial core-charges read in
  partial kinetic energy density read in
  atomic valenz-charges read in
  non local Contribution for L=           1  read in
    real space projection operators read in
  non local Contribution for L=           1  read in
    real space projection operators read in
  non local Contribution for L=           2  read in
    real space projection operators read in
  non local Contribution for L=           2  read in
    real space projection operators read in
  non local Contribution for L=           0  read in
    real space projection operators read in
  non local Contribution for L=           0  read in
    real space projection operators read in
    PAW grid and wavefunctions read in
 
   number of l-projection  operators is LMAX  =           6
   number of lm-projection operators is LMMAX =          18
 

 ----------------------------------------------------------------------------- 
|                                                                             |
|  ADVICE TO THIS USER RUNNING 'VASP/VAMP'   (HEAR YOUR MASTER'S VOICE ...):  |
|                                                                             |
|      You enforced a specific xc-type in the INCAR file,                     |
|      a different type was found on the POTCAR file                          |
|          I HOPE YOU KNOW, WHAT YOU ARE  DOING                               |
|                                                                             |
 ----------------------------------------------------------------------------- 

  PAW_PBE S 06Sep2000                   :
 energy of atom  1       EATOM= -276.8230
 kinetic energy error for atom=    0.0007 (will be added to EATOM!!)
   PAW_PBE Cu_pv 06Sep2000              :
 energy of atom  2       EATOM=-4120.1201
 kinetic energy error for atom=    0.0094 (will be added to EATOM!!)
   PAW_PBE Fe_pv 02Aug2007              :
 energy of atom  3       EATOM=-2457.4239
 kinetic energy error for atom=    0.0025 (will be added to EATOM!!)
 
 
 POSCAR: sm_isp_SD0310437-standardized_unitcell  
  positions in direct lattice
  velocities in cartesian coordinates
 exchange correlation table for  LEXCH =       14
   RHO(1)=    0.500       N(1)  =     2000
   RHO(2)=  100.500       N(2)  =     4000
 


--------------------------------------------------------------------------------------------------------


 ion  position               nearest neighbor table
   1  0.252  0.250  0.125-  10 2.28  11 2.28  13 2.29  16 2.29
   2  0.748  0.750  0.125-  10 2.28  11 2.28  13 2.29  16 2.29
   3  0.250  0.748  0.875-  11 2.28  12 2.28  13 2.29  14 2.29
   4  0.750  0.252  0.875-  11 2.28  12 2.28  13 2.29  14 2.29
   5  0.248  0.250  0.625-   9 2.28  12 2.28  14 2.29  15 2.29
   6  0.752  0.750  0.625-   9 2.28  12 2.28  14 2.29  15 2.29
   7  0.750  0.248  0.375-   9 2.28  10 2.28  15 2.29  16 2.29
   8  0.250  0.752  0.375-   9 2.28  10 2.28  15 2.29  16 2.29
   9  0.000  0.000  0.500-   7 2.28   8 2.28   5 2.28   6 2.28
  10  0.500  0.000  0.250-   7 2.28   8 2.28   1 2.28   2 2.28
  11  0.500  0.500  1.000-   4 2.28   3 2.28   1 2.28   2 2.28
  12  0.000  0.500  0.750-   4 2.28   3 2.28   5 2.28   6 2.28
  13  0.000  0.000  1.000-   3 2.29   4 2.29   2 2.29   1 2.29
  14  0.500  0.000  0.750-   3 2.29   4 2.29   6 2.29   5 2.29
  15  0.500  0.500  0.500-   8 2.29   7 2.29   6 2.29   5 2.29
  16  0.000  0.500  0.250-   8 2.29   7 2.29   2 2.29   1 2.29
 
  LATTYP: Found a simple orthorhombic cell.
 ALAT       =     5.0445883455
 B/A-ratio  =     1.0737346349
 C/A-ratio  =     2.1251654352
  
  Lattice vectors:
  
 A1 = (   0.0000000000,  -5.0445883455,   0.0000000000)
 A2 = (  -5.4165492252,   0.0000000000,   0.0000000000)
 A3 = (   0.0000000000,   0.0000000000, -10.7205847866)


Analysis of symmetry for initial positions (statically):
=====================================================================
 Subroutine PRICEL returns following result:
 
  LATTYP: Found a body centered orthorhombic cell.
 ALAT       =     5.0445883455
 B/A-ratio  =     1.0737346349
 C/A-ratio  =     2.1251654352
  
  Lattice vectors:
  
 A1 = (  -2.7082746126,  -2.5222941727,   5.3602923933)
 A2 = (   2.7082746126,   2.5222941727,   5.3602923933)
 A3 = (  -2.7082746126,   2.5222941727,  -5.3602923933)
 
   2 primitive cells build up your supercell.
 

 Routine SETGRP: Setting up the symmetry group for a 
 simple orthorhombic supercell.


 Subroutine GETGRP returns: Found  4 space group operations
 (whereof  2 operations were pure point group operations)
 out of a pool of  8 trial point group operations.


The static configuration has the point symmetry C_2 .
 The point group associated with its full space group is D_2 .


Analysis of symmetry for dynamics (positions and initial velocities):
=====================================================================
 Subroutine PRICEL returns following result:
 
  LATTYP: Found a body centered orthorhombic cell.
 ALAT       =     5.0445883455
 B/A-ratio  =     1.0737346349
 C/A-ratio  =     2.1251654352
  
  Lattice vectors:
  
 A1 = (  -2.7082746126,  -2.5222941727,   5.3602923933)
 A2 = (   2.7082746126,   2.5222941727,   5.3602923933)
 A3 = (  -2.7082746126,   2.5222941727,  -5.3602923933)
 
   2 primitive cells build up your supercell.
 

 Routine SETGRP: Setting up the symmetry group for a 
 simple orthorhombic supercell.


 Subroutine GETGRP returns: Found  4 space group operations
 (whereof  2 operations were pure point group operations)
 out of a pool of  8 trial point group operations.


The dynamic configuration has the point symmetry C_2 .
 The point group associated with its full space group is D_2 .


Analysis of structural, dynamic, and magnetic symmetry:
=====================================================================
 Subroutine PRICEL returns following result:
 
  LATTYP: Found a body centered orthorhombic cell.
 ALAT       =     5.0445883455
 B/A-ratio  =     1.0737346349
 C/A-ratio  =     2.1251654352
  
  Lattice vectors:
  
 A1 = (  -2.7082746126,  -2.5222941727,   5.3602923933)
 A2 = (   2.7082746126,   2.5222941727,   5.3602923933)
 A3 = (  -2.7082746126,   2.5222941727,  -5.3602923933)
 
   2 primitive cells build up your supercell.
 

 Routine SETGRP: Setting up the symmetry group for a 
 simple orthorhombic supercell.


 Subroutine GETGRP returns: Found  4 space group operations
 (whereof  2 operations were pure point group operations)
 out of a pool of  8 trial point group operations.


The (compounded) configuration has the point symmetry C_2 .
 The point group associated with its full space group is D_2 .


 Subroutine INISYM returns: Found  4 space group operations
 (whereof  2 operations are pure point group operations),
 and found     2 'primitive' translations

 
 
 KPOINTS: Automatic mesh                          

Automatic generation of k-mesh.
Space group operators:
 irot       det(A)        alpha          n_x          n_y          n_z        tau_x        tau_y        tau_z
    1     1.000000     0.000001     1.000000     0.000000     0.000000     0.000000     0.000000     0.000000
    2     1.000000   179.999999     0.000000     0.000000     1.000000     0.000000     0.000000     0.000000
    3     1.000000   180.000000     1.000000     0.000000     0.000000     0.000000     0.500000     0.250000
    4     1.000000   180.000000     0.000000     1.000000     0.000000     0.000000     0.500000     0.250000
 
 Subroutine IBZKPT returns following result:
 ===========================================
 
 Found     36 irreducible k-points:
 
 Following reciprocal coordinates:
            Coordinates               Weight
  0.000000  0.000000  0.000000      1.000000
  0.166667  0.000000  0.000000      2.000000
  0.333333  0.000000  0.000000      2.000000
  0.500000  0.000000  0.000000      1.000000
  0.000000  0.166667  0.000000      2.000000
  0.166667  0.166667  0.000000      4.000000
  0.333333  0.166667  0.000000      4.000000
  0.500000  0.166667  0.000000      2.000000
  0.000000  0.333333  0.000000      2.000000
  0.166667  0.333333  0.000000      4.000000
  0.333333  0.333333  0.000000      4.000000
  0.500000  0.333333  0.000000      2.000000
  0.000000  0.500000  0.000000      1.000000
  0.166667  0.500000  0.000000      2.000000
  0.333333  0.500000  0.000000      2.000000
  0.500000  0.500000  0.000000      1.000000
  0.000000  0.000000  0.333333      2.000000
  0.166667  0.000000  0.333333      4.000000
  0.333333  0.000000  0.333333      4.000000
  0.500000  0.000000  0.333333      2.000000
  0.000000  0.166667  0.333333      4.000000
  0.166667  0.166667  0.333333      4.000000
  0.333333  0.166667  0.333333      4.000000
  0.500000  0.166667  0.333333      4.000000
 -0.333333  0.166667  0.333333      4.000000
 -0.166667  0.166667  0.333333      4.000000
  0.000000  0.333333  0.333333      4.000000
  0.166667  0.333333  0.333333      4.000000
  0.333333  0.333333  0.333333      4.000000
  0.500000  0.333333  0.333333      4.000000
 -0.333333  0.333333  0.333333      4.000000
 -0.166667  0.333333  0.333333      4.000000
  0.000000  0.500000  0.333333      2.000000
  0.166667  0.500000  0.333333      4.000000
  0.333333  0.500000  0.333333      4.000000
  0.500000  0.500000  0.333333      2.000000
 
 Following cartesian coordinates:
            Coordinates               Weight
  0.000000  0.000000  0.000000      1.000000
  0.030770  0.000000  0.000000      2.000000
  0.061540  0.000000  0.000000      2.000000
  0.092310  0.000000  0.000000      1.000000
  0.000000  0.033039  0.000000      2.000000
  0.030770  0.033039  0.000000      4.000000
  0.061540  0.033039  0.000000      4.000000
  0.092310  0.033039  0.000000      2.000000
  0.000000  0.066077  0.000000      2.000000
  0.030770  0.066077  0.000000      4.000000
  0.061540  0.066077  0.000000      4.000000
  0.092310  0.066077  0.000000      2.000000
  0.000000  0.099116  0.000000      1.000000
  0.030770  0.099116  0.000000      2.000000
  0.061540  0.099116  0.000000      2.000000
  0.092310  0.099116  0.000000      1.000000
  0.000000  0.000000  0.031093      2.000000
  0.030770  0.000000  0.031093      4.000000
  0.061540  0.000000  0.031093      4.000000
  0.092310  0.000000  0.031093      2.000000
  0.000000  0.033039  0.031093      4.000000
  0.030770  0.033039  0.031093      4.000000
  0.061540  0.033039  0.031093      4.000000
  0.092310  0.033039  0.031093      4.000000
 -0.061540  0.033039  0.031093      4.000000
 -0.030770  0.033039  0.031093      4.000000
  0.000000  0.066077  0.031093      4.000000
  0.030770  0.066077  0.031093      4.000000
  0.061540  0.066077  0.031093      4.000000
  0.092310  0.066077  0.031093      4.000000
 -0.061540  0.066077  0.031093      4.000000
 -0.030770  0.066077  0.031093      4.000000
  0.000000  0.099116  0.031093      2.000000
  0.030770  0.099116  0.031093      4.000000
  0.061540  0.099116  0.031093      4.000000
  0.092310  0.099116  0.031093      2.000000
 
 TETIRR: Found    544 inequivalent tetrahedra from      648


--------------------------------------------------------------------------------------------------------




 Dimension of arrays:
   k-points           NKPTS =     36   k-points in BZ     NKDIM =     36   number of bands    NBANDS=    208
   number of dos      NEDOS =    301   number of ions     NIONS =     16
   non local maximal  LDIM  =      6   non local SUM 2l+1 LMDIM =     18
   total plane-waves  NPLWV = 221184
   max r-space proj   IRMAX =      1   max aug-charges    IRDMAX=  23985
   dimension x,y,z NGX =    48 NGY =   48 NGZ =   96
   dimension x,y,z NGXF=    96 NGYF=   96 NGZF=  192
   support grid    NGXF=    96 NGYF=   96 NGZF=  192
   ions per type =               8   4   4
   NGX,Y,Z   is equivalent  to a cutoff of  14.73, 15.82, 14.89 a.u.
   NGXF,Y,Z  is equivalent  to a cutoff of  29.46, 31.64, 29.77 a.u.

 SYSTEM =  CuFeS2                                  
 POSCAR =  sm_isp_SD0310437-standardized_unitcell  

 Startparameter for this run:
   NWRITE =      2    write-flag & timer
   PREC   = accura    normal or accurate (medium, high low for compatibility)
   ISTART =      1    job   : 0-new  1-cont  2-samecut
   ICHARG =      1    charge: 1-file 2-atom 10-const
   ISPIN  =      1    spin polarized calculation?
   LNONCOLLINEAR =      T non collinear calculations
   LSORBIT =      F    spin-orbit coupling
   INIWAV =      1    electr: 0-lowe 1-rand  2-diag
   LASPH  =      T    aspherical Exc in radial PAW
   METAGGA=      F    non-selfconsistent MetaGGA calc.

 Electronic Relaxation 1
   ENCUT  =  700.0 eV  51.45 Ry    7.17 a.u.  11.68 10.88 23.13*2*pi/ulx,y,z
   ENINI  =  700.0     initial cutoff
   ENAUG  =  758.2 eV  augmentation charge cutoff
   NELM   =    200;   NELMIN=  2; NELMDL=  0     # of ELM steps 
   EDIFF  = 0.1E-07   stopping-criterion for ELM
   LREAL  =      F    real-space projection
   NLSPLINE    = F    spline interpolate recip. space projectors
   LCOMPAT=      F    compatible to vasp.4.4
   GGA_COMPAT  = T    GGA compatible to vasp.4.4-vasp.4.6
   LMAXPAW     = -100 max onsite density
   LMAXMIX     =    4 max onsite mixed and CHGCAR
   VOSKOWN=      0    Vosko Wilk Nusair interpolation
   ROPT   =    0.00000   0.00000   0.00000
 Ionic relaxation
   EDIFFG = -.1E-04   stopping-criterion for IOM
   NSW    =      0    number of steps for IOM
   NBLOCK =      1;   KBLOCK =      1    inner block; outer block 
   IBRION =     -1    ionic relax: 0-MD 1-quasi-New 2-CG
   NFREE  =      0    steps in history (QN), initial steepest desc. (CG)
   ISIF   =      2    stress and relaxation
   IWAVPR =     10    prediction:  0-non 1-charg 2-wave 3-comb
   ISYM   =      1    0-nonsym 1-usesym 2-fastsym
   LCORR  =      T    Harris-Foulkes like correction to forces

   POTIM  = 0.1000    time-step for ionic-motion
   TEIN   =    0.0    initial temperature
   TEBEG  =    0.0;   TEEND  =   0.0 temperature during run
   SMASS  =  -3.00    Nose mass-parameter (am)
   estimated Nose-frequenzy (Omega)   =  0.10E-29 period in steps =****** mass=  -0.670E-27a.u.
   SCALEE = 1.0000    scale energy and forces
   NPACO  =    256;   APACO  = 16.0  distance and # of slots for P.C.
   PSTRESS=    0.0 pullay stress

  Mass of Ions in am
   POMASS =  32.07 63.55 55.85
  Ionic Valenz
   ZVAL   =   6.00 17.00 14.00
  Atomic Wigner-Seitz radii
   RWIGS  =  -1.00 -1.00 -1.00
  virtual crystal weights 
   VCA    =   1.00  1.00  1.00
   NELECT =     172.0000    total number of electrons
   NUPDOWN=      -1.0000    fix difference up-down

 DOS related values:
   EMIN   =  10.00;   EMAX   =-10.00  energy-range for DOS
   EFERMI =   0.00
   ISMEAR =    -5;   SIGMA  =   0.03  broadening in eV -4-tet -1-fermi 0-gaus

 Electronic relaxation 2 (details)
   IALGO  =     58    algorithm
   LDIAG  =      T    sub-space diagonalisation (order eigenvalues)
   LSUBROT=      F    optimize rotation matrix (better conditioning)
   TURBO    =      0    0=normal 1=particle mesh
   IRESTART =      0    0=no restart 2=restart with 2 vectors
   NREBOOT  =      0    no. of reboots
   NMIN     =      0    reboot dimension
   EREF     =   0.00    reference energy to select bands
   IMIX   =      4    mixing-type and parameters
     AMIX     =   0.40;   BMIX     =  1.00
     AMIX_MAG =   1.60;   BMIX_MAG =  1.00
     AMIN     =   0.10
     WC   =   100.;   INIMIX=   1;  MIXPRE=   1;  MAXMIX= -45

 Intra band minimization:
   WEIMIN = 0.0000     energy-eigenvalue tresh-hold
   EBREAK =  0.12E-10  absolut break condition
   DEPER  =   0.30     relativ break condition  

   TIME   =   0.40     timestep for ELM

  volume/ion in A,a.u.               =      18.31       123.55
  Fermi-wavevector in a.u.,A,eV,Ry     =   1.370867  2.590563 25.569110  1.879277
  Thomas-Fermi vector in A             =   2.496615
 
 Write flags
   LWAVE        =      T    write WAVECAR
   LDOWNSAMPLE  =      F    k-point downsampling of WAVECAR
   LCHARG       =      T    write CHGCAR
   LVTOT        =      F    write LOCPOT, total local potential
   LVHAR        =      F    write LOCPOT, Hartree potential only
   LELF         =      F    write electronic localiz. function (ELF)
   LORBIT       =     11    0 simple, 1 ext, 2 COOP (PROOUT), +10 PAW based schemes


 Dipole corrections
   LMONO  =      F    monopole corrections only (constant potential shift)
   LDIPOL =      F    correct potential (dipole corrections)
   IDIPOL =      0    1-x, 2-y, 3-z, 4-all directions 
   EPSILON=  1.0000000 bulk dielectric constant

 LDA+U is selected, type is set to LDAUTYPE =  2
   angular momentum for each species LDAUL =     2    2    2
   U (eV)           for each species LDAUU =   0.0  0.1  4.7
   J (eV)           for each species LDAUJ =   0.0  0.0  0.0
 Exchange correlation treatment:
   GGA     =    PS    GGA type
   LEXCH   =    14    internal setting for exchange type
   VOSKOWN=      0    Vosko Wilk Nusair interpolation
   LHFCALC =     F    Hartree Fock is set to
   LHFONE  =     F    Hartree Fock one center treatment
   AEXX    =    0.0000 exact exchange contribution

 Linear response parameters
   LEPSILON=     F    determine dielectric tensor
   LRPA    =     F    only Hartree local field effects (RPA)
   LNABLA  =     F    use nabla operator in PAW spheres
   LVEL    =     F    velocity operator in full k-point grid
   LINTERFAST=   F  fast interpolation
   KINTER  =     0    interpolate to denser k-point grid
   CSHIFT  =0.1000    complex shift for real part using Kramers Kronig
   OMEGAMAX=  -1.0    maximum frequency
   DEG_THRESHOLD= 0.2000000E-02 threshold for treating states as degnerate
   RTIME   =   -0.100 relaxation time in fs
  (WPLASMAI=    0.000 imaginary part of plasma frequency in eV, 0.658/RTIME)
   DFIELD  = 0.0000000 0.0000000 0.0000000 field for delta impulse in time
 
 Orbital magnetization related:
   ORBITALMAG=     F  switch on orbital magnetization
   LCHIMAG   =     F  perturbation theory with respect to B field
   DQ        =  0.001000  dq finite difference perturbation B field
   LLRAUG    =     F  two centre corrections for induced B field



--------------------------------------------------------------------------------------------------------


 Static calculation
 charge density and potential will be updated during run
 non collinear spin polarized calculation
 Conjugate gradient for all bands (Freysoldt, et al. PRB 79, 241103 (2009))
 preconditioned conjugated gradient                                        
 perform sub-space diagonalisation
    before iterative eigenvector-optimisation
 modified Broyden-mixing scheme, WC =      100.0
 initial mixing is a Kerker type mixing with AMIX =  0.4000 and BMIX =      1.0000
 Hartree-type preconditioning will be used
 using additional bands          122
 reciprocal scheme for non local part
 use partial core corrections
 no Harris-corrections to forces 
 use gradient corrections 
 use of overlap-Matrix (Vanderbilt PP)
 Fermi weights with tetrahedron method with Bloechl corrections


--------------------------------------------------------------------------------------------------------


  energy-cutoff  :      700.00
  volume of cell :      292.93
      direct lattice vectors                 reciprocal lattice vectors
     5.416549225  0.000000000  0.000000000     0.184619387  0.000000000  0.000000000
     0.000000000  5.044588345  0.000000000     0.000000000  0.198232231  0.000000000
     0.000000000  0.000000000 10.720584787     0.000000000  0.000000000  0.093278494

  length of vectors
     5.416549225  5.044588345 10.720584787     0.184619387  0.198232231  0.093278494


 
 old parameters found on file WAVECAR:
  energy-cutoff  :      700.00
  volume of cell :      292.99
      direct lattice vectors                 reciprocal lattice vectors
     5.416549225  0.000000000  0.000000000     0.184619387  0.000000000  0.000000000
     0.000000000  5.045562109  0.000000000     0.000000000  0.198193973  0.000000000
     0.000000000  0.000000000 10.720584787     0.000000000  0.000000000  0.093278494

  length of vectors

 
 k-points in units of 2pi/SCALE and weight: Automatic mesh                          
   0.00000000  0.00000000  0.00000000       0.009
   0.03076990  0.00000000  0.00000000       0.019
   0.06153980  0.00000000  0.00000000       0.019
   0.09230969  0.00000000  0.00000000       0.009
   0.00000000  0.03303871  0.00000000       0.019
   0.03076990  0.03303871  0.00000000       0.037
   0.06153980  0.03303871  0.00000000       0.037
   0.09230969  0.03303871  0.00000000       0.019
   0.00000000  0.06607741  0.00000000       0.019
   0.03076990  0.06607741  0.00000000       0.037
   0.06153980  0.06607741  0.00000000       0.037
   0.09230969  0.06607741  0.00000000       0.019
   0.00000000  0.09911612  0.00000000       0.009
   0.03076990  0.09911612  0.00000000       0.019
   0.06153980  0.09911612  0.00000000       0.019
   0.09230969  0.09911612  0.00000000       0.009
   0.00000000  0.00000000  0.03109283       0.019
   0.03076990  0.00000000  0.03109283       0.037
   0.06153980  0.00000000  0.03109283       0.037
   0.09230969  0.00000000  0.03109283       0.019
   0.00000000  0.03303871  0.03109283       0.037
   0.03076990  0.03303871  0.03109283       0.037
   0.06153980  0.03303871  0.03109283       0.037
   0.09230969  0.03303871  0.03109283       0.037
  -0.06153980  0.03303871  0.03109283       0.037
  -0.03076990  0.03303871  0.03109283       0.037
   0.00000000  0.06607741  0.03109283       0.037
   0.03076990  0.06607741  0.03109283       0.037
   0.06153980  0.06607741  0.03109283       0.037
   0.09230969  0.06607741  0.03109283       0.037
  -0.06153980  0.06607741  0.03109283       0.037
  -0.03076990  0.06607741  0.03109283       0.037
   0.00000000  0.09911612  0.03109283       0.019
   0.03076990  0.09911612  0.03109283       0.037
   0.06153980  0.09911612  0.03109283       0.037
   0.09230969  0.09911612  0.03109283       0.019
 
 k-points in reciprocal lattice and weights: Automatic mesh                          
   0.00000000  0.00000000  0.00000000       0.009
   0.16666667  0.00000000  0.00000000       0.019
   0.33333333  0.00000000  0.00000000       0.019
   0.50000000  0.00000000  0.00000000       0.009
   0.00000000  0.16666667  0.00000000       0.019
   0.16666667  0.16666667  0.00000000       0.037
   0.33333333  0.16666667  0.00000000       0.037
   0.50000000  0.16666667  0.00000000       0.019
   0.00000000  0.33333333  0.00000000       0.019
   0.16666667  0.33333333  0.00000000       0.037
   0.33333333  0.33333333  0.00000000       0.037
   0.50000000  0.33333333  0.00000000       0.019
   0.00000000  0.50000000  0.00000000       0.009
   0.16666667  0.50000000  0.00000000       0.019
   0.33333333  0.50000000  0.00000000       0.019
   0.50000000  0.50000000  0.00000000       0.009
   0.00000000  0.00000000  0.33333333       0.019
   0.16666667  0.00000000  0.33333333       0.037
   0.33333333  0.00000000  0.33333333       0.037
   0.50000000  0.00000000  0.33333333       0.019
   0.00000000  0.16666667  0.33333333       0.037
   0.16666667  0.16666667  0.33333333       0.037
   0.33333333  0.16666667  0.33333333       0.037
   0.50000000  0.16666667  0.33333333       0.037
  -0.33333333  0.16666667  0.33333333       0.037
  -0.16666667  0.16666667  0.33333333       0.037
   0.00000000  0.33333333  0.33333333       0.037
   0.16666667  0.33333333  0.33333333       0.037
   0.33333333  0.33333333  0.33333333       0.037
   0.50000000  0.33333333  0.33333333       0.037
  -0.33333333  0.33333333  0.33333333       0.037
  -0.16666667  0.33333333  0.33333333       0.037
   0.00000000  0.50000000  0.33333333       0.019
   0.16666667  0.50000000  0.33333333       0.037
   0.33333333  0.50000000  0.33333333       0.037
   0.50000000  0.50000000  0.33333333       0.019
 
 position of ions in fractional coordinates (direct lattice) 
   0.25224459  0.25000000  0.12500000
   0.74775544  0.75000000  0.12500000
   0.25000000  0.74791311  0.87500000
   0.75000000  0.25208692  0.87500000
   0.24775541  0.25000000  0.62500000
   0.75224456  0.75000000  0.62500000
   0.75000000  0.24791308  0.37500000
   0.25000000  0.75208689  0.37500000
   0.00000000  0.00000000  0.49960338
   0.50000000  0.00000000  0.25039662
   0.50000000  0.50000000  0.99960338
   0.00000000  0.50000000  0.75039662
   0.00000000  0.00000000  0.99989454
   0.50000000  0.00000000  0.75010546
   0.50000000  0.50000000  0.49989454
   0.00000000  0.50000000  0.25010546
 
 position of ions in cartesian coordinates  (Angst):
   1.36629523  1.26114709  1.34007310
   4.05025416  3.78344126  1.34007310
   1.35413731  3.77291376  9.38051169
   4.06241192  1.27167473  9.38051169
   1.34197938  1.26114709  6.70036549
   4.07456968  3.78344126  6.70036549
   4.06241192  1.25061944  4.02021929
   1.35413731  3.79396875  4.02021929
   0.00000000  0.00000000  5.35604037
   2.70827461  0.00000000  2.68439822
   2.70827461  2.52229417 10.71633276
   0.00000000  2.52229417  8.04469061
   0.00000000  0.00000000 10.71945419
   2.70827461  0.00000000  8.04156919
   2.70827461  2.52229417  5.35916180
   0.00000000  2.52229417  2.68127679
 
 Euler angles ALPHA=     0.0000000  BETA=     0.0000000

 transformation matrix from SAXIS to cartesian coordinates
 ---------------------------------------------------------
     1.0000000 m_x     0.0000000 m_y     0.0000000 m_z
     0.0000000 m_x     1.0000000 m_y     0.0000000 m_z
     0.0000000 m_x     0.0000000 m_y     1.0000000 m_z

 transformation matrix from cartesian coordinates to SAXIS
 ---------------------------------------------------------
     1.0000000 m_x     0.0000000 m_y     0.0000000 m_z
     0.0000000 m_x     1.0000000 m_y     0.0000000 m_z
     0.0000000 m_x     0.0000000 m_y     1.0000000 m_z




--------------------------------------------------------------------------------------------------------


 k-point  1 :   0.0000 0.0000 0.0000  plane waves:   24618
 k-point  2 :   0.1667 0.0000 0.0000  plane waves:   24594
 k-point  3 :   0.3333 0.0000 0.0000  plane waves:   24612
 k-point  4 :   0.5000 0.0000 0.0000  plane waves:   24672
 k-point  5 :   0.0000 0.1667 0.0000  plane waves:   24556
 k-point  6 :   0.1667 0.1667 0.0000  plane waves:   24628
 k-point  7 :   0.3333 0.1667 0.0000  plane waves:   24656
 k-point  8 :   0.5000 0.1667 0.0000  plane waves:   24672
 k-point  9 :   0.0000 0.3333 0.0000  plane waves:   24644
 k-point 10 :   0.1667 0.3333 0.0000  plane waves:   24666
 k-point 11 :   0.3333 0.3333 0.0000  plane waves:   24608
 k-point 12 :   0.5000 0.3333 0.0000  plane waves:   24640
 k-point 13 :   0.0000 0.5000 0.0000  plane waves:   24724
 k-point 14 :   0.1667 0.5000 0.0000  plane waves:   24672
 k-point 15 :   0.3333 0.5000 0.0000  plane waves:   24580
 k-point 16 :   0.5000 0.5000 0.0000  plane waves:   24608
 k-point 17 :   0.0000 0.0000 0.3333  plane waves:   24596
 k-point 18 :   0.1667 0.0000 0.3333  plane waves:   24638
 k-point 19 :   0.3333 0.0000 0.3333  plane waves:   24618
 k-point 20 :   0.5000 0.0000 0.3333  plane waves:   24576
 k-point 21 :   0.0000 0.1667 0.3333  plane waves:   24644
 k-point 22 :   0.1667 0.1667 0.3333  plane waves:   24614
 k-point 23 :   0.3333 0.1667 0.3333  plane waves:   24616
 k-point 24 :   0.5000 0.1667 0.3333  plane waves:   24632
 k-point 25 :  -0.3333 0.1667 0.3333  plane waves:   24616
 k-point 26 :  -0.1667 0.1667 0.3333  plane waves:   24614
 k-point 27 :   0.0000 0.3333 0.3333  plane waves:   24674
 k-point 28 :   0.1667 0.3333 0.3333  plane waves:   24674
 k-point 29 :   0.3333 0.3333 0.3333  plane waves:   24630
 k-point 30 :   0.5000 0.3333 0.3333  plane waves:   24644
 k-point 31 :  -0.3333 0.3333 0.3333  plane waves:   24630
 k-point 32 :  -0.1667 0.3333 0.3333  plane waves:   24674
 k-point 33 :   0.0000 0.5000 0.3333  plane waves:   24716
 k-point 34 :   0.1667 0.5000 0.3333  plane waves:   24688
 k-point 35 :   0.3333 0.5000 0.3333  plane waves:   24656
 k-point 36 :   0.5000 0.5000 0.3333  plane waves:   24680

 maximum and minimum number of plane-waves per node :       802      728

 maximum number of plane-waves:     24724
 maximum index in each direction: 
   IXMAX=   12   IYMAX=   10   IZMAX=   23
   IXMIN=  -12   IYMIN=  -11   IZMIN=  -23


 parallel 3D FFT for wavefunctions:
    minimum data exchange during FFTs selected (reduces bandwidth)
 parallel 3D FFT for charge:
    minimum data exchange during FFTs selected (reduces bandwidth)


 total amount of memory used by VASP MPI-rank0    81827. kBytes
=======================================================================

   base      :      30000. kBytes
   nonl-proj :       6323. kBytes
   fftplans  :       1447. kBytes
   grid      :       5898. kBytes
   one-center:         62. kBytes
   wavefun   :      38097. kBytes
 
     INWAV:  cpu time    7.7645: real time    7.8316
 Broyden mixing: mesh for mixing (old mesh)
   NGX = 23   NGY = 21   NGZ = 47
  (NGX  = 96   NGY  = 96   NGZ  =192)
  gives a total of  22701 points

 initial charge density was supplied:
 number of electron     171.9999835 magnetization      -0.0000000      0.0000000     -0.0000000
 charge density for first step will be calculated from the start-wavefunctions


--------------------------------------------------------------------------------------------------------


 BZINTS: Fermi energy:  4.748116;172.000000 electrons
         Band energy:***********;  BLOECHL correction:  0.000000
 Maximum index for augmentation-charges          960 (set IRDMAX)


--------------------------------------------------------------------------------------------------------


 initial charge from wavefunction
 First call to EWALD:  gamma=   0.267
 Maximum number of real-space cells 3x 3x 2
 Maximum number of reciprocal cells 2x 2x 4

    FEWALD:  cpu time    0.0194: real time    0.0194

 ----------------------------------------------------------------------------- 
|                                                                             |
|           W    W    AA    RRRRR   N    N  II  N    N   GGGG   !!!           |
|           W    W   A  A   R    R  NN   N  II  NN   N  G    G  !!!           |
|           W    W  A    A  R    R  N N  N  II  N N  N  G       !!!           |
|           W WW W  AAAAAA  RRRRR   N  N N  II  N  N N  G  GGG   !            |
|           WW  WW  A    A  R   R   N   NN  II  N   NN  G    G                |
|           W    W  A    A  R    R  N    N  II  N    N   GGGG   !!!           |
|                                                                             |
|      ALGO=A and IALGO=5X tend to fail with the tetrahedron method           |
|      (e.g. Bloechls method ISMEAR=-5 is not variational)                    |
|      please switch to IMSEAR=0-n, except for DOS calculations               |
|      For DOS calculations use IALGO=53 after preconverging with ISMEAR>=0   |
|          I HOPE YOU KNOW, WHAT YOU ARE  DOING                               |
|                                                                             |
 ----------------------------------------------------------------------------- 



--------------------------------------- Iteration      1(   1)  ---------------------------------------


    POTLOK:  cpu time    0.1624: real time    0.1632
    SETDIJ:  cpu time    0.5888: real time    0.5909
    TRIAL :  cpu time    4.0073: real time    4.0376
 BZINTS: Fermi energy:  4.748116;172.000000 electrons
         Band energy:***********;  BLOECHL correction:  0.000000
 BZINTS: Fermi energy:  4.748116;172.000000 electrons
         Band energy:***********;  BLOECHL correction:  0.000000
    CORREC:  cpu time    3.6205: real time    3.6386
    CHARGE:  cpu time    1.0934: real time    1.0989
    --------------------------------------------
      LOOP:  cpu time    9.4849: real time    9.5765

 eigenvalue-minimisations  :     0
 total energy-change (2. order) :-0.8194014E+02  (-0.5586955E-06)
 number of electron     171.9999835 magnetization       0.0000000      0.0000000      0.0000000
 augmentation part       70.5701276 magnetization      -0.0000015     -0.0000001      0.0004174

 Free energy of the ion-electron system (eV)
  ---------------------------------------------------
  alpha Z        PSCENC =       578.45122973
  Ewald energy   TEWEN  =    -15530.42250700
  -Hartree energ DENC   =    -10790.28541768
  -exchange      EXHF   =         0.00000000
  -V(xc)+E(xc)   XCENC  =       820.98333171
  PAW double counting   =     27877.57496529   -28800.31365173
  entropy T*S    EENTRO =         0.00000000
  eigenvalues    EBANDS =     -2742.94436906
  atomic energy  EATOM  =     28505.01627691
  ---------------------------------------------------
  free energy    TOTEN  =       -81.94014184 eV

  energy without entropy =      -81.94014184  energy(sigma->0) =      -81.94014184


--------------------------------------------------------------------------------------------------------




--------------------------------------- Iteration      1(   2)  ---------------------------------------


    POTLOK:  cpu time    0.0922: real time    0.0928
    SETDIJ:  cpu time    0.5886: real time    0.5904
    TRIAL :  cpu time    3.8866: real time    3.9118
 BZINTS: Fermi energy:  4.748116;172.000000 electrons
         Band energy:***********;  BLOECHL correction:  0.000000
 BZINTS: Fermi energy:  4.748116;172.000000 electrons
         Band energy:***********;  BLOECHL correction:  0.000000
    CORREC:  cpu time    3.6166: real time    3.6349
    CHARGE:  cpu time    1.0898: real time    1.0954
    --------------------------------------------
      LOOP:  cpu time    9.2848: real time    9.3394

 eigenvalue-minimisations  :     0
 total energy-change (2. order) :-0.8750350E-05  (-0.2591601E-06)
 number of electron     171.9999835 magnetization       0.0000000      0.0000000      0.0000000
 augmentation part       70.5701276 magnetization      -0.0000014     -0.0000001      0.0004174

 Free energy of the ion-electron system (eV)
  ---------------------------------------------------
  alpha Z        PSCENC =       578.45122973
  Ewald energy   TEWEN  =    -15530.42250700
  -Hartree energ DENC   =    -10790.28536415
  -exchange      EXHF   =         0.00000000
  -V(xc)+E(xc)   XCENC  =       820.98331275
  PAW double counting   =     27877.57481882   -28800.31350429
  entropy T*S    EENTRO =         0.00000000
  eigenvalues    EBANDS =     -2742.94441336
  atomic energy  EATOM  =     28505.01627691
  ---------------------------------------------------
  free energy    TOTEN  =       -81.94015059 eV

  energy without entropy =      -81.94015059  energy(sigma->0) =      -81.94015059


--------------------------------------------------------------------------------------------------------




--------------------------------------- Iteration      1(   3)  ---------------------------------------


    POTLOK:  cpu time    0.0856: real time    0.0861
    SETDIJ:  cpu time    0.5878: real time    0.5896
    TRIAL :  cpu time    3.9339: real time    3.9595
 BZINTS: Fermi energy:  4.748116;172.000000 electrons
         Band energy:***********;  BLOECHL correction:  0.000000
 BZINTS: Fermi energy:  4.748116;172.000000 electrons
         Band energy:***********;  BLOECHL correction:  0.000000
    CORREC:  cpu time    3.6510: real time    3.6695
    CHARGE:  cpu time    1.0835: real time    1.0890
    --------------------------------------------
      LOOP:  cpu time    9.3532: real time    9.4075

 eigenvalue-minimisations  :     0
 total energy-change (2. order) :-0.4866848E-05  (-0.1483880E-06)
 number of electron     171.9999835 magnetization       0.0000000      0.0000000      0.0000000
 augmentation part       70.5701277 magnetization      -0.0000013     -0.0000001      0.0004174

 Free energy of the ion-electron system (eV)
  ---------------------------------------------------
  alpha Z        PSCENC =       578.45122973
  Ewald energy   TEWEN  =    -15530.42250700
  -Hartree energ DENC   =    -10790.28533159
  -exchange      EXHF   =         0.00000000
  -V(xc)+E(xc)   XCENC  =       820.98330198
  PAW double counting   =     27877.57470543   -28800.31339070
  entropy T*S    EENTRO =         0.00000000
  eigenvalues    EBANDS =     -2742.94444021
  atomic energy  EATOM  =     28505.01627691
  ---------------------------------------------------
  free energy    TOTEN  =       -81.94015545 eV

  energy without entropy =      -81.94015545  energy(sigma->0) =      -81.94015545


--------------------------------------------------------------------------------------------------------




--------------------------------------- Iteration      1(   4)  ---------------------------------------


    POTLOK:  cpu time    0.0857: real time    0.0863
    SETDIJ:  cpu time    0.5850: real time    0.5869
    TRIAL :  cpu time    3.9079: real time    3.9333
 BZINTS: Fermi energy:  4.748116;172.000000 electrons
         Band energy:***********;  BLOECHL correction:  0.000000
 BZINTS: Fermi energy:  4.748116;172.000000 electrons
         Band energy:***********;  BLOECHL correction:  0.000000
    CORREC:  cpu time    3.6132: real time    3.6317
    CHARGE:  cpu time    1.1055: real time    1.1112
    --------------------------------------------
      LOOP:  cpu time    9.3083: real time    9.3626

 eigenvalue-minimisations  :     0
 total energy-change (2. order) :-0.3101413E-05  (-0.9727169E-07)
 number of electron     171.9999835 magnetization       0.0000000      0.0000000      0.0000000
 augmentation part       70.5701277 magnetization      -0.0000012     -0.0000001      0.0004174

 Free energy of the ion-electron system (eV)
  ---------------------------------------------------
  alpha Z        PSCENC =       578.45122973
  Ewald energy   TEWEN  =    -15530.42250700
  -Hartree energ DENC   =    -10790.28530873
  -exchange      EXHF   =         0.00000000
  -V(xc)+E(xc)   XCENC  =       820.98329501
  PAW double counting   =     27877.57461029   -28800.31329564
  entropy T*S    EENTRO =         0.00000000
  eigenvalues    EBANDS =     -2742.94445912
  atomic energy  EATOM  =     28505.01627691
  ---------------------------------------------------
  free energy    TOTEN  =       -81.94015856 eV

  energy without entropy =      -81.94015856  energy(sigma->0) =      -81.94015856


--------------------------------------------------------------------------------------------------------




--------------------------------------- Iteration      1(   5)  ---------------------------------------


    POTLOK:  cpu time    0.0858: real time    0.0863
    SETDIJ:  cpu time    0.5845: real time    0.5864
    TRIAL :  cpu time    3.9436: real time    3.9694
 BZINTS: Fermi energy:  4.748116;172.000000 electrons
         Band energy:***********;  BLOECHL correction:  0.000000
 BZINTS: Fermi energy:  4.748116;172.000000 electrons
         Band energy:***********;  BLOECHL correction:  0.000000
    CORREC:  cpu time    3.5950: real time    3.6129
    CHARGE:  cpu time    1.0822: real time    1.0878
    --------------------------------------------
      LOOP:  cpu time    9.3023: real time    9.3571

 eigenvalue-minimisations  :     0
 total energy-change (2. order) :-0.2219847E-05  (-0.7200492E-07)
 number of electron     171.9999835 magnetization       0.0000000      0.0000000      0.0000000
 augmentation part       70.5701277 magnetization      -0.0000011     -0.0000001      0.0004174

 Free energy of the ion-electron system (eV)
  ---------------------------------------------------
  alpha Z        PSCENC =       578.45122973
  Ewald energy   TEWEN  =    -15530.42250700
  -Hartree energ DENC   =    -10790.28529130
  -exchange      EXHF   =         0.00000000
  -V(xc)+E(xc)   XCENC  =       820.98328996
  PAW double counting   =     27877.57452651   -28800.31321207
  entropy T*S    EENTRO =         0.00000000
  eigenvalues    EBANDS =     -2742.94447351
  atomic energy  EATOM  =     28505.01627691
  ---------------------------------------------------
  free energy    TOTEN  =       -81.94016077 eV

  energy without entropy =      -81.94016077  energy(sigma->0) =      -81.94016077


--------------------------------------------------------------------------------------------------------




--------------------------------------- Iteration      1(   6)  ---------------------------------------


    POTLOK:  cpu time    0.0888: real time    0.0893
    SETDIJ:  cpu time    0.5838: real time    0.5857
    TRIAL :  cpu time    3.9071: real time    3.9326
 BZINTS: Fermi energy:  4.748116;172.000000 electrons
         Band energy:***********;  BLOECHL correction:  0.000000
 BZINTS: Fermi energy:  4.748116;172.000000 electrons
         Band energy:***********;  BLOECHL correction:  0.000000
    CORREC:  cpu time    3.5966: real time    3.6150
    CHARGE:  cpu time    1.0838: real time    1.0893
    --------------------------------------------
      LOOP:  cpu time    9.2722: real time    9.3258

 eigenvalue-minimisations  :     0
 total energy-change (2. order) :-0.1829270E-05  (-0.5888374E-07)
 number of electron     171.9999835 magnetization       0.0000000      0.0000000      0.0000000
 augmentation part       70.5701277 magnetization      -0.0000011     -0.0000001      0.0004174

 Free energy of the ion-electron system (eV)
  ---------------------------------------------------
  alpha Z        PSCENC =       578.45122973
  Ewald energy   TEWEN  =    -15530.42250700
  -Hartree energ DENC   =    -10790.28527700
  -exchange      EXHF   =         0.00000000
  -V(xc)+E(xc)   XCENC  =       820.98328579
  PAW double counting   =     27877.57444811   -28800.31313399
  entropy T*S    EENTRO =         0.00000000
  eigenvalues    EBANDS =     -2742.94448516
  atomic energy  EATOM  =     28505.01627691
  ---------------------------------------------------
  free energy    TOTEN  =       -81.94016260 eV

  energy without entropy =      -81.94016260  energy(sigma->0) =      -81.94016260


--------------------------------------------------------------------------------------------------------




--------------------------------------- Iteration      1(   7)  ---------------------------------------


    POTLOK:  cpu time    0.0854: real time    0.0860
    SETDIJ:  cpu time    0.5849: real time    0.5868
    TRIAL :  cpu time    3.9011: real time    3.9267
 BZINTS: Fermi energy:  4.748116;172.000000 electrons
         Band energy:***********;  BLOECHL correction:  0.000000
 BZINTS: Fermi energy:  4.748116;172.000000 electrons
         Band energy:***********;  BLOECHL correction:  0.000000
    CORREC:  cpu time    3.5856: real time    3.6037
    CHARGE:  cpu time    1.0803: real time    1.0857
    --------------------------------------------
      LOOP:  cpu time    9.2472: real time    9.3036

 eigenvalue-minimisations  :     0
 total energy-change (2. order) :-0.1822118E-05  (-0.4468966E-07)
 number of electron     171.9999835 magnetization       0.0000000      0.0000000      0.0000000
 augmentation part       70.5701277 magnetization      -0.0000010     -0.0000001      0.0004174

 Free energy of the ion-electron system (eV)
  ---------------------------------------------------
  alpha Z        PSCENC =       578.45122973
  Ewald energy   TEWEN  =    -15530.42250700
  -Hartree energ DENC   =    -10790.28526450
  -exchange      EXHF   =         0.00000000
  -V(xc)+E(xc)   XCENC  =       820.98328166
  PAW double counting   =     27877.57437018   -28800.31305648
  entropy T*S    EENTRO =         0.00000000
  eigenvalues    EBANDS =     -2742.94449491
  atomic energy  EATOM  =     28505.01627691
  ---------------------------------------------------
  free energy    TOTEN  =       -81.94016443 eV

  energy without entropy =      -81.94016443  energy(sigma->0) =      -81.94016443


--------------------------------------------------------------------------------------------------------




--------------------------------------- Iteration      1(   8)  ---------------------------------------


    POTLOK:  cpu time    0.0854: real time    0.0860
    SETDIJ:  cpu time    0.5845: real time    0.5864
    TRIAL :  cpu time    3.9632: real time    3.9895
 BZINTS: Fermi energy:  4.748116;172.000000 electrons
         Band energy:***********;  BLOECHL correction:  0.000000
 BZINTS: Fermi energy:  4.748116;172.000000 electrons
         Band energy:***********;  BLOECHL correction:  0.000000
    CORREC:  cpu time    3.6001: real time    3.6212
    CHARGE:  cpu time    1.0929: real time    1.0984
    --------------------------------------------
      LOOP:  cpu time    9.3358: real time    9.3946

 eigenvalue-minimisations  :     0
 total energy-change (2. order) :-0.1785549E-05  (-0.3110522E-07)
 number of electron     171.9999835 magnetization       0.0000000      0.0000000      0.0000000
 augmentation part       70.5701278 magnetization      -0.0000010     -0.0000000      0.0004174

 Free energy of the ion-electron system (eV)
  ---------------------------------------------------
  alpha Z        PSCENC =       578.45122973
  Ewald energy   TEWEN  =    -15530.42250700
  -Hartree energ DENC   =    -10790.28525443
  -exchange      EXHF   =         0.00000000
  -V(xc)+E(xc)   XCENC  =       820.98327763
  PAW double counting   =     27877.57429783   -28800.31298465
  entropy T*S    EENTRO =         0.00000000
  eigenvalues    EBANDS =     -2742.94450222
  atomic energy  EATOM  =     28505.01627691
  ---------------------------------------------------
  free energy    TOTEN  =       -81.94016621 eV

  energy without entropy =      -81.94016621  energy(sigma->0) =      -81.94016621


--------------------------------------------------------------------------------------------------------




--------------------------------------- Iteration      1(   9)  ---------------------------------------


    POTLOK:  cpu time    0.0853: real time    0.0858
    SETDIJ:  cpu time    0.5830: real time    0.5850
    TRIAL :  cpu time    3.8818: real time    3.9066
 BZINTS: Fermi energy:  4.748116;172.000000 electrons
         Band energy:***********;  BLOECHL correction:  0.000000
 BZINTS: Fermi energy:  4.748116;172.000000 electrons
         Band energy:***********;  BLOECHL correction:  0.000000
    CORREC:  cpu time    3.5818: real time    3.6003
    CHARGE:  cpu time    1.1019: real time    1.1076
    --------------------------------------------
      LOOP:  cpu time    9.2441: real time    9.2986

 eigenvalue-minimisations  :     0
 total energy-change (2. order) :-0.1612847E-05  (-0.2606796E-07)
 number of electron     171.9999835 magnetization       0.0000000      0.0000000      0.0000000
 augmentation part       70.5701278 magnetization      -0.0000010     -0.0000000      0.0004174

 Free energy of the ion-electron system (eV)
  ---------------------------------------------------
  alpha Z        PSCENC =       578.45122973
  Ewald energy   TEWEN  =    -15530.42250700
  -Hartree energ DENC   =    -10790.28524706
  -exchange      EXHF   =         0.00000000
  -V(xc)+E(xc)   XCENC  =       820.98327399
  PAW double counting   =     27877.57423689   -28800.31292422
  entropy T*S    EENTRO =         0.00000000
  eigenvalues    EBANDS =     -2742.94450707
  atomic energy  EATOM  =     28505.01627691
  ---------------------------------------------------
  free energy    TOTEN  =       -81.94016782 eV

  energy without entropy =      -81.94016782  energy(sigma->0) =      -81.94016782


--------------------------------------------------------------------------------------------------------




--------------------------------------- Iteration      1(  10)  ---------------------------------------


    POTLOK:  cpu time    0.0878: real time    0.0883
    SETDIJ:  cpu time    0.5832: real time    0.5850
    TRIAL :  cpu time    3.8975: real time    3.9224
 BZINTS: Fermi energy:  4.748116;172.000000 electrons
         Band energy:***********;  BLOECHL correction:  0.000000
 BZINTS: Fermi energy:  4.748116;172.000000 electrons
         Band energy:***********;  BLOECHL correction:  0.000000
    CORREC:  cpu time    3.5835: real time    3.6016
    CHARGE:  cpu time    1.0823: real time    1.0879
    --------------------------------------------
      LOOP:  cpu time    9.2441: real time    9.2979

 eigenvalue-minimisations  :     0
 total energy-change (2. order) :-0.2257886E-05  (-0.1614973E-07)
 number of electron     171.9999835 magnetization       0.0000000      0.0000000      0.0000000
 augmentation part       70.5701278 magnetization      -0.0000009      0.0000000      0.0004174

 Free energy of the ion-electron system (eV)
  ---------------------------------------------------
  alpha Z        PSCENC =       578.45122973
  Ewald energy   TEWEN  =    -15530.42250700
  -Hartree energ DENC   =    -10790.28524046
  -exchange      EXHF   =         0.00000000
  -V(xc)+E(xc)   XCENC  =       820.98326883
  PAW double counting   =     27877.57417565   -28800.31286351
  entropy T*S    EENTRO =         0.00000000
  eigenvalues    EBANDS =     -2742.94451023
  atomic energy  EATOM  =     28505.01627691
  ---------------------------------------------------
  free energy    TOTEN  =       -81.94017008 eV

  energy without entropy =      -81.94017008  energy(sigma->0) =      -81.94017008


--------------------------------------------------------------------------------------------------------




--------------------------------------- Iteration      1(  11)  ---------------------------------------


    POTLOK:  cpu time    0.0853: real time    0.0858
    SETDIJ:  cpu time    0.5826: real time    0.5846
    TRIAL :  cpu time    3.8601: real time    3.8848
 BZINTS: Fermi energy:  4.748116;172.000000 electrons
         Band energy:***********;  BLOECHL correction:  0.000000
 BZINTS: Fermi energy:  4.748116;172.000000 electrons
         Band energy:***********;  BLOECHL correction:  0.000000
    CORREC:  cpu time    3.6102: real time    3.6283
    CHARGE:  cpu time    1.0863: real time    1.0921
    --------------------------------------------
      LOOP:  cpu time    9.2391: real time    9.2906

 eigenvalue-minimisations  :     0
 total energy-change (2. order) :-0.1509790E-05  (-0.7125623E-08)
 number of electron     171.9999835 magnetization       0.0000000      0.0000000      0.0000000
 augmentation part       70.5701278 magnetization      -0.0000009      0.0000000      0.0004174

 Free energy of the ion-electron system (eV)
  ---------------------------------------------------
  alpha Z        PSCENC =       578.45122973
  Ewald energy   TEWEN  =    -15530.42250700
  -Hartree energ DENC   =    -10790.28523597
  -exchange      EXHF   =         0.00000000
  -V(xc)+E(xc)   XCENC  =       820.98326537
  PAW double counting   =     27877.57412881   -28800.31281706
  entropy T*S    EENTRO =         0.00000000
  eigenvalues    EBANDS =     -2742.94451237
  atomic energy  EATOM  =     28505.01627691
  ---------------------------------------------------
  free energy    TOTEN  =       -81.94017159 eV

  energy without entropy =      -81.94017159  energy(sigma->0) =      -81.94017159


--------------------------------------------------------------------------------------------------------




--------------------------------------- Iteration      1(  12)  ---------------------------------------


    POTLOK:  cpu time    0.0851: real time    0.0855
    SETDIJ:  cpu time    0.5828: real time    0.5846
    TRIAL :  cpu time    3.8438: real time    3.8685
 BZINTS: Fermi energy:  4.748116;172.000000 electrons
         Band energy:***********;  BLOECHL correction:  0.000000
 BZINTS: Fermi energy:  4.748116;172.000000 electrons
         Band energy:***********;  BLOECHL correction:  0.000000
    CORREC:  cpu time    3.5779: real time    3.5958
    CHARGE:  cpu time    1.0815: real time    1.0869
    --------------------------------------------
      LOOP:  cpu time    9.1811: real time    9.2351

 eigenvalue-minimisations  :     0
 total energy-change (2. order) :-0.2496054E-06  (-0.1212817E-06)
 number of electron     171.9999835 magnetization       0.0000000      0.0000000      0.0000000
 augmentation part       70.5701278 magnetization      -0.0000008      0.0000002      0.0004174

 Free energy of the ion-electron system (eV)
  ---------------------------------------------------
  alpha Z        PSCENC =       578.45122973
  Ewald energy   TEWEN  =    -15530.42250700
  -Hartree energ DENC   =    -10790.28523383
  -exchange      EXHF   =         0.00000000
  -V(xc)+E(xc)   XCENC  =       820.98326481
  PAW double counting   =     27877.57410484   -28800.31279331
  entropy T*S    EENTRO =         0.00000000
  eigenvalues    EBANDS =     -2742.94451399
  atomic energy  EATOM  =     28505.01627691
  ---------------------------------------------------
  free energy    TOTEN  =       -81.94017184 eV

  energy without entropy =      -81.94017184  energy(sigma->0) =      -81.94017184


--------------------------------------------------------------------------------------------------------




--------------------------------------- Iteration      1(  13)  ---------------------------------------


    POTLOK:  cpu time    0.0851: real time    0.0859
    SETDIJ:  cpu time    0.5826: real time    0.5846
    TRIAL :  cpu time    3.8813: real time    3.9064
 BZINTS: Fermi energy:  4.748116;172.000000 electrons
         Band energy:***********;  BLOECHL correction:  0.000000
 BZINTS: Fermi energy:  4.748116;172.000000 electrons
         Band energy:***********;  BLOECHL correction:  0.000000
    CORREC:  cpu time    3.5928: real time    3.6113
    CHARGE:  cpu time    1.0890: real time    1.0944
    --------------------------------------------
      LOOP:  cpu time    9.2419: real time    9.2958

 eigenvalue-minimisations  :     0
 total energy-change (2. order) : 0.4148533E-06  (-0.4016155E-08)
 number of electron     171.9999835 magnetization       0.0000000      0.0000000      0.0000000
 augmentation part       70.5701278 magnetization      -0.0000008      0.0000002      0.0004174

 Free energy of the ion-electron system (eV)
  ---------------------------------------------------
  alpha Z        PSCENC =       578.45122973
  Ewald energy   TEWEN  =    -15530.42250700
  -Hartree energ DENC   =    -10790.28519728
  -exchange      EXHF   =         0.00000000
  -V(xc)+E(xc)   XCENC  =       820.98326495
  PAW double counting   =     27877.57368600   -28800.31237826
  entropy T*S    EENTRO =         0.00000000
  eigenvalues    EBANDS =     -2742.94454647
  atomic energy  EATOM  =     28505.01627691
  ---------------------------------------------------
  free energy    TOTEN  =       -81.94017143 eV

  energy without entropy =      -81.94017143  energy(sigma->0) =      -81.94017143


--------------------------------------------------------------------------------------------------------




--------------------------------------- Iteration      1(  14)  ---------------------------------------


    POTLOK:  cpu time    0.0855: real time    0.0860
    SETDIJ:  cpu time    0.5829: real time    0.5847
    TRIAL :  cpu time    3.8495: real time    3.8744
 BZINTS: Fermi energy:  4.748116;172.000000 electrons
         Band energy:***********;  BLOECHL correction:  0.000000
 BZINTS: Fermi energy:  4.748116;172.000000 electrons
         Band energy:***********;  BLOECHL correction:  0.000000
    CORREC:  cpu time    3.5948: real time    3.6131
    CHARGE:  cpu time    1.0864: real time    1.0919
    --------------------------------------------
      LOOP:  cpu time    9.2089: real time    9.2637

 eigenvalue-minimisations  :     0
 total energy-change (2. order) :-0.5351758E-06  (-0.3109960E-08)
 number of electron     171.9999835 magnetization       0.0000000      0.0000000      0.0000000
 augmentation part       70.5701278 magnetization      -0.0000008      0.0000002      0.0004174

 Free energy of the ion-electron system (eV)
  ---------------------------------------------------
  alpha Z        PSCENC =       578.45122973
  Ewald energy   TEWEN  =    -15530.42250700
  -Hartree energ DENC   =    -10790.28519706
  -exchange      EXHF   =         0.00000000
  -V(xc)+E(xc)   XCENC  =       820.98326374
  PAW double counting   =     27877.57368097   -28800.31237328
  entropy T*S    EENTRO =         0.00000000
  eigenvalues    EBANDS =     -2742.94454596
  atomic energy  EATOM  =     28505.01627691
  ---------------------------------------------------
  free energy    TOTEN  =       -81.94017196 eV

  energy without entropy =      -81.94017196  energy(sigma->0) =      -81.94017196


--------------------------------------------------------------------------------------------------------




--------------------------------------- Iteration      1(  15)  ---------------------------------------


    POTLOK:  cpu time    0.0851: real time    0.0856
    SETDIJ:  cpu time    0.5825: real time    0.5845
    TRIAL :  cpu time    3.8458: real time    3.8732
 BZINTS: Fermi energy:  4.748116;172.000000 electrons
         Band energy:***********;  BLOECHL correction:  0.000000
 BZINTS: Fermi energy:  4.748116;172.000000 electrons
         Band energy:***********;  BLOECHL correction:  0.000000
    CORREC:  cpu time    3.6054: real time    3.6236
    CHARGE:  cpu time    1.0835: real time    1.0890
    --------------------------------------------
      LOOP:  cpu time    9.2109: real time    9.2688

 eigenvalue-minimisations  :     0
 total energy-change (2. order) :-0.1503940E-06  (-0.2953283E-08)
 number of electron     171.9999835 magnetization       0.0000000      0.0000000      0.0000000
 augmentation part       70.5701278 magnetization      -0.0000008      0.0000002      0.0004174

 Free energy of the ion-electron system (eV)
  ---------------------------------------------------
  alpha Z        PSCENC =       578.45122973
  Ewald energy   TEWEN  =    -15530.42250700
  -Hartree energ DENC   =    -10790.28519688
  -exchange      EXHF   =         0.00000000
  -V(xc)+E(xc)   XCENC  =       820.98326341
  PAW double counting   =     27877.57367661   -28800.31236898
  entropy T*S    EENTRO =         0.00000000
  eigenvalues    EBANDS =     -2742.94454591
  atomic energy  EATOM  =     28505.01627691
  ---------------------------------------------------
  free energy    TOTEN  =       -81.94017211 eV

  energy without entropy =      -81.94017211  energy(sigma->0) =      -81.94017211


--------------------------------------------------------------------------------------------------------




--------------------------------------- Iteration      1(  16)  ---------------------------------------


    POTLOK:  cpu time    0.0850: real time    0.0855
    SETDIJ:  cpu time    0.5831: real time    0.5851
    TRIAL :  cpu time    3.8462: real time    3.8710
 BZINTS: Fermi energy:  4.748116;172.000000 electrons
         Band energy:***********;  BLOECHL correction:  0.000000
 BZINTS: Fermi energy:  4.748116;172.000000 electrons
         Band energy:***********;  BLOECHL correction:  0.000000
    CORREC:  cpu time    3.5836: real time    3.6016
    CHARGE:  cpu time    1.0784: real time    1.0840
    --------------------------------------------
      LOOP:  cpu time    9.1878: real time    9.2407

 eigenvalue-minimisations  :     0
 total energy-change (2. order) :-0.1265507E-06  (-0.4572331E-08)
 number of electron     171.9999835 magnetization       0.0000000      0.0000000      0.0000000
 augmentation part       70.5701278 magnetization      -0.0000008      0.0000002      0.0004174

 Free energy of the ion-electron system (eV)
  ---------------------------------------------------
  alpha Z        PSCENC =       578.45122973
  Ewald energy   TEWEN  =    -15530.42250700
  -Hartree energ DENC   =    -10790.28519671
  -exchange      EXHF   =         0.00000000
  -V(xc)+E(xc)   XCENC  =       820.98326314
  PAW double counting   =     27877.57367222   -28800.31236465
  entropy T*S    EENTRO =         0.00000000
  eigenvalues    EBANDS =     -2742.94454587
  atomic energy  EATOM  =     28505.01627691
  ---------------------------------------------------
  free energy    TOTEN  =       -81.94017224 eV

  energy without entropy =      -81.94017224  energy(sigma->0) =      -81.94017224


--------------------------------------------------------------------------------------------------------




--------------------------------------- Iteration      1(  17)  ---------------------------------------


    POTLOK:  cpu time    0.0850: real time    0.0855
    SETDIJ:  cpu time    0.5834: real time    0.5853
    TRIAL :  cpu time    3.8389: real time    3.8638
 BZINTS: Fermi energy:  4.748116;172.000000 electrons
         Band energy:***********;  BLOECHL correction:  0.000000
 BZINTS: Fermi energy:  4.748116;172.000000 electrons
         Band energy:***********;  BLOECHL correction:  0.000000
    CORREC:  cpu time    3.5888: real time    3.6069
    CHARGE:  cpu time    1.1094: real time    1.1152
    --------------------------------------------
      LOOP:  cpu time    9.2203: real time    9.2721

 eigenvalue-minimisations  :     0
 total energy-change (2. order) :-0.2058150E-06  (-0.5461393E-08)
 number of electron     171.9999835 magnetization       0.0000000      0.0000000      0.0000000
 augmentation part       70.5701278 magnetization      -0.0000008      0.0000002      0.0004174

 Free energy of the ion-electron system (eV)
  ---------------------------------------------------
  alpha Z        PSCENC =       578.45122973
  Ewald energy   TEWEN  =    -15530.42250700
  -Hartree energ DENC   =    -10790.28519646
  -exchange      EXHF   =         0.00000000
  -V(xc)+E(xc)   XCENC  =       820.98326269
  PAW double counting   =     27877.57366503   -28800.31235755
  entropy T*S    EENTRO =         0.00000000
  eigenvalues    EBANDS =     -2742.94454579
  atomic energy  EATOM  =     28505.01627691
  ---------------------------------------------------
  free energy    TOTEN  =       -81.94017245 eV

  energy without entropy =      -81.94017245  energy(sigma->0) =      -81.94017245


--------------------------------------------------------------------------------------------------------




--------------------------------------- Iteration      1(  18)  ---------------------------------------


    POTLOK:  cpu time    0.0855: real time    0.0860
    SETDIJ:  cpu time    0.5824: real time    0.5843
    TRIAL :  cpu time    3.8805: real time    3.9053
 BZINTS: Fermi energy:  4.748116;172.000000 electrons
         Band energy:***********;  BLOECHL correction:  0.000000
 BZINTS: Fermi energy:  4.748116;172.000000 electrons
         Band energy:***********;  BLOECHL correction:  0.000000
    CORREC:  cpu time    3.5939: real time    3.6119
    CHARGE:  cpu time    1.0856: real time    1.0910
    --------------------------------------------
      LOOP:  cpu time    9.2404: real time    9.2933

 eigenvalue-minimisations  :     0
 total energy-change (2. order) :-0.2754095E-06  (-0.2753320E-08)
 number of electron     171.9999835 magnetization       0.0000000      0.0000000      0.0000000
 augmentation part       70.5701278 magnetization      -0.0000008      0.0000002      0.0004174

 Free energy of the ion-electron system (eV)
  ---------------------------------------------------
  alpha Z        PSCENC =       578.45122973
  Ewald energy   TEWEN  =    -15530.42250700
  -Hartree energ DENC   =    -10790.28519614
  -exchange      EXHF   =         0.00000000
  -V(xc)+E(xc)   XCENC  =       820.98326209
  PAW double counting   =     27877.57365537   -28800.31234804
  entropy T*S    EENTRO =         0.00000000
  eigenvalues    EBANDS =     -2742.94454564
  atomic energy  EATOM  =     28505.01627691
  ---------------------------------------------------
  free energy    TOTEN  =       -81.94017272 eV

  energy without entropy =      -81.94017272  energy(sigma->0) =      -81.94017272


--------------------------------------------------------------------------------------------------------




--------------------------------------- Iteration      1(  19)  ---------------------------------------


    POTLOK:  cpu time    0.0854: real time    0.0859
    SETDIJ:  cpu time    0.5825: real time    0.5843
    TRIAL :  cpu time    3.8502: real time    3.8753
 BZINTS: Fermi energy:  4.748116;172.000000 electrons
         Band energy:***********;  BLOECHL correction:  0.000000
 BZINTS: Fermi energy:  4.748116;172.000000 electrons
         Band energy:***********;  BLOECHL correction:  0.000000
    CORREC:  cpu time    3.5805: real time    3.5986
    CHARGE:  cpu time    1.0868: real time    1.0924
    --------------------------------------------
      LOOP:  cpu time    9.1966: real time    9.2498

 eigenvalue-minimisations  :     0
 total energy-change (2. order) :-0.1538356E-06  (-0.3533651E-08)
 number of electron     171.9999835 magnetization       0.0000000      0.0000000      0.0000000
 augmentation part       70.5701278 magnetization      -0.0000008      0.0000001      0.0004174

 Free energy of the ion-electron system (eV)
  ---------------------------------------------------
  alpha Z        PSCENC =       578.45122973
  Ewald energy   TEWEN  =    -15530.42250700
  -Hartree energ DENC   =    -10790.28519598
  -exchange      EXHF   =         0.00000000
  -V(xc)+E(xc)   XCENC  =       820.98326176
  PAW double counting   =     27877.57364988   -28800.31234264
  entropy T*S    EENTRO =         0.00000000
  eigenvalues    EBANDS =     -2742.94454553
  atomic energy  EATOM  =     28505.01627691
  ---------------------------------------------------
  free energy    TOTEN  =       -81.94017287 eV

  energy without entropy =      -81.94017287  energy(sigma->0) =      -81.94017287


--------------------------------------------------------------------------------------------------------




--------------------------------------- Iteration      1(  20)  ---------------------------------------


    POTLOK:  cpu time    0.0850: real time    0.0856
    SETDIJ:  cpu time    0.5826: real time    0.5845
    TRIAL :  cpu time    3.8580: real time    3.8832
 BZINTS: Fermi energy:  4.748116;172.000000 electrons
         Band energy:***********;  BLOECHL correction:  0.000000
 BZINTS: Fermi energy:  4.748116;172.000000 electrons
         Band energy:***********;  BLOECHL correction:  0.000000
    CORREC:  cpu time    3.6129: real time    3.6309
    CHARGE:  cpu time    1.0915: real time    1.0970
    --------------------------------------------
      LOOP:  cpu time    9.2419: real time    9.2941

 eigenvalue-minimisations  :     0
 total energy-change (2. order) :-0.2358975E-06  (-0.3171025E-08)
 number of electron     171.9999835 magnetization       0.0000000      0.0000000      0.0000000
 augmentation part       70.5701278 magnetization      -0.0000008      0.0000001      0.0004174

 Free energy of the ion-electron system (eV)
  ---------------------------------------------------
[...]
 -0.000  -0.000  -0.000  -0.000  -0.000  -0.000  -0.000   0.000   0.000  -0.000  -0.000  -0.000  -0.000   0.000   0.000  -0.000
 pseudopotential strength for first ion, spin component:           3
  0.000  -0.000   0.000  -0.000  -0.000   0.000   0.000   0.000  -0.000   0.000  -0.000   0.000   0.000   0.000  -0.000   0.000
  0.000  -0.000   0.000  -0.000  -0.000   0.000   0.000   0.000  -0.000   0.000  -0.000   0.000   0.000   0.000  -0.000   0.000
 -0.000   0.000  -0.000   0.000   0.000  -0.000   0.000   0.000  -0.000   0.000   0.000  -0.000   0.000   0.000  -0.000   0.000
  0.000   0.000   0.000   0.000   0.000   0.000   0.000  -0.000  -0.000  -0.000   0.000   0.000   0.000  -0.000  -0.000  -0.000
 -0.000   0.000  -0.000   0.000  -0.000   0.000  -0.000  -0.000   0.000   0.000  -0.000   0.000  -0.000  -0.000   0.000   0.000
 -0.000   0.000  -0.000   0.000   0.000  -0.000   0.000   0.000  -0.000   0.000   0.000  -0.000   0.000   0.000  -0.000   0.000
  0.000   0.000   0.000   0.000   0.000   0.000   0.000  -0.000  -0.000  -0.000   0.000   0.000   0.000  -0.000  -0.000  -0.000
 -0.000   0.000  -0.000   0.000  -0.000   0.000  -0.000  -0.000   0.000   0.000  -0.000   0.000  -0.000  -0.000   0.000   0.000
 pseudopotential strength for first ion, spin component:           4
 39.560   0.000  45.432   0.000  -0.000   0.000  -0.001   0.000  -0.003   0.000  -0.000   0.000  -0.001   0.000  -0.005   0.000
 45.432   0.000  52.179   0.000  -0.000   0.000  -0.001   0.000  -0.004   0.000  -0.000   0.000  -0.001   0.000  -0.005   0.000
 -0.000   0.000  -0.000   0.000   8.210   0.000   0.002   0.000  -0.001   0.000  11.128   0.000   0.002   0.000  -0.001   0.000
 -0.001   0.000  -0.001   0.000   0.002   0.000   8.212   0.000  -0.000   0.000   0.002   0.000  11.130   0.000  -0.001   0.000
 -0.003   0.000  -0.004   0.000  -0.001   0.000  -0.000   0.000   8.212   0.000  -0.001   0.000  -0.001   0.000  11.131   0.000
 -0.000   0.000  -0.000   0.000  11.128   0.000   0.002   0.000  -0.001   0.000  15.103   0.000   0.003   0.000  -0.001   0.000
 -0.001   0.000  -0.001   0.000   0.002   0.000  11.130   0.000  -0.001   0.000   0.003   0.000  15.106   0.000  -0.001   0.000
 -0.005   0.000  -0.005   0.000  -0.001   0.000  -0.001   0.000  11.131   0.000  -0.001   0.000  -0.001   0.000  15.106   0.000
 total augmentation occupancy for first ion, spin component:           1
 10.566  -6.516   0.000   0.000  -0.597   0.000   0.000   0.167
 -6.516   4.723   0.000   0.000   0.492   0.000   0.000  -0.107
  0.000   0.000   3.483   0.081   0.000  -0.947  -0.043   0.000
  0.000   0.000   0.081   3.605   0.000  -0.043  -1.015  -0.000
 -0.597   0.492   0.000   0.000   3.626   0.000  -0.000  -1.027
  0.000   0.000  -0.947  -0.043   0.000   0.312   0.015   0.000
  0.000   0.000  -0.043  -1.015  -0.000   0.015   0.337   0.000
  0.167  -0.107   0.000  -0.000  -1.027   0.000   0.000   0.342
 total augmentation occupancy for first ion, spin component:           2
  0.000  -0.000   0.000   0.000   0.000  -0.000   0.000  -0.000
 -0.000   0.000  -0.000   0.000  -0.000   0.000   0.000   0.000
 -0.000  -0.000  -0.000   0.000   0.000   0.000  -0.000   0.000
  0.000  -0.000   0.000   0.000  -0.000  -0.000  -0.000   0.000
  0.000  -0.000   0.000  -0.000   0.000   0.000   0.000  -0.000
  0.000   0.000   0.000  -0.000   0.000   0.000   0.000   0.000
  0.000   0.000  -0.000  -0.000   0.000   0.000   0.000   0.000
 -0.000   0.000   0.000   0.000  -0.000   0.000   0.000   0.000
 total augmentation occupancy for first ion, spin component:           3
  0.000   0.000  -0.000  -0.000   0.000   0.000   0.000   0.000
 -0.000   0.000   0.000   0.000   0.000  -0.000  -0.000   0.000
 -0.000   0.000   0.000   0.000   0.000  -0.000   0.000  -0.000
 -0.000   0.000   0.000   0.000  -0.000   0.000   0.000   0.000
  0.000   0.000   0.000  -0.000   0.000  -0.000   0.000   0.000
  0.000  -0.000   0.000   0.000  -0.000   0.000  -0.000   0.000
  0.000  -0.000   0.000   0.000   0.000   0.000   0.000  -0.000
  0.000   0.000  -0.000   0.000   0.000   0.000  -0.000   0.000
 total augmentation occupancy for first ion, spin component:           4
  0.000  -0.000   0.127   0.103  -0.000   0.073   0.073  -0.000
 -0.000   0.000  -0.103  -0.082   0.000  -0.082  -0.081   0.000
  0.127  -0.103  -0.000   0.000   0.005   0.000  -0.000  -0.002
  0.103  -0.082   0.000   0.000   0.007  -0.000   0.000  -0.005
 -0.000   0.000   0.005   0.007   0.000  -0.002  -0.004  -0.000
  0.073  -0.082   0.000  -0.000  -0.002  -0.000   0.000   0.014
  0.073  -0.081  -0.000   0.000  -0.004  -0.000   0.000   0.014
 -0.000   0.000  -0.002  -0.005  -0.000   0.014   0.014   0.000


------------------------ aborting loop because EDIFF is reached ----------------------------------------


 


 total charge     
 
# of ion       s       p       d       tot
------------------------------------------
    1        1.314   2.400   0.000   3.714
    2        1.314   2.401   0.000   3.714
    3        1.313   2.403   0.000   3.717
    4        1.313   2.403   0.000   3.717
    5        1.314   2.401   0.000   3.714
    6        1.314   2.400   0.000   3.714
    7        1.313   2.403   0.000   3.717
    8        1.313   2.403   0.000   3.717
    9        0.254   6.194   8.919  15.367
   10        0.254   6.194   8.918  15.366
   11        0.254   6.194   8.919  15.367
   12        0.254   6.194   8.918  15.366
   13        0.345   6.339   5.806  12.491
   14        0.345   6.339   5.806  12.491
   15        0.345   6.339   5.806  12.491
   16        0.345   6.339   5.806  12.491
--------------------------------------------------
tot         12.906  69.348  58.899 141.153
 


 magnetization (x)
 
# of ion       s       p       d       tot
------------------------------------------
    1       -0.000   0.000   0.000  -0.000
    2        0.000   0.000   0.000   0.000
    3        0.000   0.000   0.000   0.000
    4       -0.000   0.000   0.000  -0.000
    5        0.000   0.000   0.000   0.000
    6       -0.000   0.000   0.000  -0.000
    7        0.000   0.000   0.000   0.000
    8       -0.000   0.000   0.000  -0.000
    9       -0.000  -0.000   0.000   0.000
   10        0.000  -0.000   0.000   0.000
   11       -0.000  -0.000   0.000   0.000
   12        0.000  -0.000   0.000   0.000
   13        0.000   0.000  -0.000  -0.000
   14       -0.000   0.000  -0.000  -0.000
   15        0.000   0.000  -0.000  -0.000
   16       -0.000   0.000  -0.000  -0.000
--------------------------------------------------
tot          0.000   0.000  -0.000   0.000
 


 magnetization (y)
 
# of ion       s       p       d       tot
------------------------------------------
    1       -0.000   0.000   0.000   0.000
    2       -0.000   0.000   0.000   0.000
    3       -0.000  -0.000   0.000  -0.000
    4        0.000   0.000   0.000   0.000
    5       -0.000   0.000   0.000   0.000
    6       -0.000   0.000   0.000   0.000
    7       -0.000  -0.000   0.000  -0.000
    8        0.000   0.000   0.000   0.000
    9       -0.000   0.000  -0.000  -0.000
   10       -0.000   0.000   0.000  -0.000
   11       -0.000   0.000  -0.000  -0.000
   12       -0.000   0.000   0.000  -0.000
   13       -0.000  -0.000  -0.000  -0.000
   14       -0.000   0.000   0.000   0.000
   15       -0.000  -0.000  -0.000  -0.000
   16       -0.000   0.000   0.000   0.000
--------------------------------------------------
tot         -0.000   0.000  -0.000  -0.000
 


 magnetization (z)
 
# of ion       s       p       d       tot
------------------------------------------
    1        0.000  -0.003   0.000  -0.003
    2        0.000  -0.003   0.000  -0.003
    3       -0.000   0.004   0.000   0.003
    4       -0.000   0.002   0.000   0.002
    5        0.000  -0.003   0.000  -0.003
    6        0.000  -0.003   0.000  -0.003
    7       -0.000   0.004   0.000   0.003
    8       -0.000   0.002   0.000   0.002
    9        0.000  -0.000   0.002   0.002
   10       -0.000   0.000  -0.002  -0.002
   11        0.000  -0.000   0.002   0.002
   12       -0.000   0.000  -0.002  -0.002
   13        0.021   0.053   3.691   3.764
   14       -0.021  -0.053  -3.691  -3.764
   15        0.021   0.053   3.691   3.764
   16       -0.021  -0.053  -3.691  -3.764
--------------------------------------------------
tot          0.000  -0.000   0.001   0.000
 
    FORLOC:  cpu time    0.0018: real time    0.0019
    FORNL :  cpu time    1.1586: real time    1.1641
    STRESS:  cpu time    1.1085: real time    1.1136
    FORCOR:  cpu time    0.0760: real time    0.0764
    OFIELD:  cpu time    0.0004: real time    0.0004

  FORCE on cell =-STRESS in cart. coord.  units (eV):
  Direction    XX          YY          ZZ          XY          YZ          ZX
  --------------------------------------------------------------------------------------
  Alpha Z   578.45123   578.45123   578.45123
  Ewald   -5058.67111 -5396.69903 -5075.08736     0.00000    -0.00000     0.00000
  Hartree  3649.49917  3481.54386  3659.24216    -0.00000    -0.00000    -0.00000
  E(xc)   -1049.99527 -1050.20920 -1050.00049     0.00000    -0.00000    -0.00000
  Local   -1459.46397  -955.27786 -1450.55815     0.00000    -0.00000    -0.00000
  n-local   120.25750   116.49469   120.35813    -0.27432    -0.03504    -0.01001
  augment  1181.87364  1179.63767  1180.01839    -0.00000     0.00000     0.00000
  Kinetic  2033.54938  2046.05826  2033.49209    -0.89501     0.01700    -0.00056
  Fock        0.00000     0.00000     0.00000     0.00000     0.00000     0.00000
  -------------------------------------------------------------------------------------
  Total      -4.49943    -0.00038    -4.08400     0.00000     0.00000     0.00000
  in kB     -24.60940    -0.00208   -22.33724     0.00000     0.00000     0.00000
  external pressure =      -15.65 kB  Pullay stress =        0.00 kB


 VOLUME and BASIS-vectors are now :
 -----------------------------------------------------------------------------
  energy-cutoff  :      700.00
  volume of cell :      292.93
      direct lattice vectors                 reciprocal lattice vectors
     5.416549225  0.000000000  0.000000000     0.184619387  0.000000000  0.000000000
     0.000000000  5.044588345  0.000000000     0.000000000  0.198232231  0.000000000
     0.000000000  0.000000000 10.720584787     0.000000000  0.000000000  0.093278494

  length of vectors
     5.416549225  5.044588345 10.720584787     0.184619387  0.198232231  0.093278494


 FORCES acting on ions:
    Electron-Ion                     Ewald-Force                    Non-Local-Force
 -----------------------------------------------------------------------------------------------
   0.434E+02 0.199E-12 0.138E-12   -.442E+02 0.455E-12 0.000E+00   0.784E+00 -.108E-18 0.108E-18
   -.434E+02 0.474E-12 0.646E-12   0.442E+02 -.938E-12 0.568E-13   -.784E+00 0.000E+00 0.000E+00
   0.630E-12 -.384E+02 -.583E-13   -.426E-13 0.391E+02 0.426E-13   0.434E-18 -.663E+00 0.000E+00
   0.210E-12 0.384E+02 0.935E-13   0.595E-13 -.391E+02 0.114E-12   0.000E+00 0.663E+00 0.000E+00
   -.434E+02 -.448E-12 -.160E-12   0.442E+02 0.473E-12 -.284E-13   -.784E+00 0.000E+00 0.000E+00
   0.434E+02 0.101E-12 0.283E-13   -.442E+02 -.981E-12 0.711E-13   0.784E+00 -.108E-18 0.108E-18
   0.000E+00 -.384E+02 -.775E-12   -.426E-13 0.391E+02 -.853E-13   -.434E-18 -.663E+00 0.000E+00
   0.420E-12 0.384E+02 0.359E-12   0.000E+00 -.391E+02 -.568E-13   0.000E+00 0.663E+00 0.000E+00
   -.210E-12 0.451E-12 0.280E+01   0.826E-05 -.214E-04 -.284E+01   -.108E-18 0.434E-18 0.349E-01
   0.143E-11 -.361E-12 -.280E+01   -.826E-05 -.214E-04 0.284E+01   0.000E+00 0.651E-18 -.349E-01
   0.139E-11 -.276E-11 0.280E+01   -.826E-05 0.214E-04 -.284E+01   -.108E-18 -.434E-18 0.349E-01
   -.252E-12 0.341E-11 -.280E+01   0.826E-05 0.214E-04 0.284E+01   0.000E+00 0.651E-18 -.349E-01
   0.840E-13 -.101E-12 -.735E+01   -.606E-05 0.178E-04 0.735E+01   0.000E+00 0.000E+00 -.522E-02
   0.672E-12 0.958E-13 0.735E+01   0.606E-05 0.178E-04 -.735E+01   0.000E+00 0.108E-18 0.522E-02
   0.714E-12 -.315E-11 -.735E+01   0.606E-05 -.178E-04 0.735E+01   0.000E+00 0.000E+00 -.522E-02
   0.420E-13 0.608E-12 0.735E+01   -.606E-05 -.178E-04 -.735E+01   0.000E+00 0.108E-18 0.522E-02
 -----------------------------------------------------------------------------------------------
   0.116E-10 0.526E-11 0.519E-10   -.308E-13 0.113E-13 -.693E-13   0.110E-15 -.110E-15 -.278E-16
 
 
 POSITION                                       TOTAL-FORCE (eV/Angst)
 -----------------------------------------------------------------------------------
      1.36630      1.26115      1.34007         0.000004      0.000000     -0.000000
      4.05025      3.78344      1.34007        -0.000004      0.000000     -0.000000
      1.35414      3.77291      9.38051         0.000000      0.000001     -0.000000
      4.06241      1.27167      9.38051        -0.000000     -0.000001      0.000000
      1.34198      1.26115      6.70037        -0.000004      0.000000     -0.000000
      4.07457      3.78344      6.70037         0.000004      0.000000      0.000000
      4.06241      1.25062      4.02022         0.000000      0.000001      0.000000
      1.35414      3.79397      4.02022        -0.000000     -0.000001      0.000000
      0.00000      0.00000      5.35604         0.000000      0.000000     -0.000011
      2.70827      0.00000      2.68440         0.000000      0.000000      0.000011
      2.70827      2.52229     10.71633         0.000000      0.000000     -0.000011
      0.00000      2.52229      8.04469         0.000000      0.000000      0.000011
      0.00000      0.00000     10.71945         0.000000      0.000000      0.000002
      2.70827      0.00000      8.04157         0.000000      0.000000     -0.000002
      2.70827      2.52229      5.35916         0.000000      0.000000      0.000002
      0.00000      2.52229      2.68128         0.000000      0.000000     -0.000002
 -----------------------------------------------------------------------------------
    total drift:                                0.000000      0.000000      0.000000


--------------------------------------------------------------------------------------------------------



  FREE ENERGIE OF THE ION-ELECTRON SYSTEM (eV)
  ---------------------------------------------------
  free  energy   TOTEN  =       -81.94017443 eV

  energy  without entropy=      -81.94017443  energy(sigma->0) =      -81.94017443
 


--------------------------------------------------------------------------------------------------------


    POTLOK:  cpu time    0.6685: real time    0.6712


--------------------------------------------------------------------------------------------------------


 writing wavefunctions
     LOOP+:  cpu time  364.4377: real time  438.6966
    4ORBIT:  cpu time    0.0000: real time    0.0000
 


 total charge     
 
# of ion       s       p       d       tot
------------------------------------------
    1        1.314   2.400   0.000   3.714
    2        1.314   2.401   0.000   3.714
    3        1.313   2.403   0.000   3.717
    4        1.313   2.403   0.000   3.717
    5        1.314   2.401   0.000   3.714
    6        1.314   2.400   0.000   3.714
    7        1.313   2.403   0.000   3.717
    8        1.313   2.403   0.000   3.717
    9        0.254   6.194   8.919  15.367
   10        0.254   6.194   8.918  15.366
   11        0.254   6.194   8.919  15.367
   12        0.254   6.194   8.918  15.366
   13        0.345   6.339   5.806  12.491
   14        0.345   6.339   5.806  12.491
   15        0.345   6.339   5.806  12.491
   16        0.345   6.339   5.806  12.491
--------------------------------------------------
tot         12.906  69.348  58.899 141.153
 


 magnetization (x)
 
# of ion       s       p       d       tot
------------------------------------------
    1       -0.000   0.000   0.000  -0.000
    2        0.000   0.000   0.000   0.000
    3        0.000   0.000   0.000   0.000
    4       -0.000   0.000   0.000  -0.000
    5        0.000   0.000   0.000   0.000
    6       -0.000   0.000   0.000  -0.000
    7        0.000   0.000   0.000   0.000
    8       -0.000   0.000   0.000  -0.000
    9       -0.000  -0.000   0.000   0.000
   10        0.000  -0.000   0.000   0.000
   11       -0.000  -0.000   0.000   0.000
   12        0.000  -0.000   0.000   0.000
   13        0.000   0.000  -0.000  -0.000
   14       -0.000   0.000  -0.000  -0.000
   15        0.000   0.000  -0.000  -0.000
   16       -0.000   0.000  -0.000  -0.000
--------------------------------------------------
tot          0.000   0.000  -0.000   0.000
 


 magnetization (y)
 
# of ion       s       p       d       tot
------------------------------------------
    1       -0.000   0.000   0.000   0.000
    2       -0.000   0.000   0.000   0.000
    3       -0.000  -0.000   0.000  -0.000
    4        0.000   0.000   0.000   0.000
    5       -0.000   0.000   0.000   0.000
    6       -0.000   0.000   0.000   0.000
    7       -0.000  -0.000   0.000  -0.000
    8        0.000   0.000   0.000   0.000
    9       -0.000   0.000  -0.000  -0.000
   10       -0.000   0.000   0.000  -0.000
   11       -0.000   0.000  -0.000  -0.000
   12       -0.000   0.000   0.000  -0.000
   13       -0.000  -0.000  -0.000  -0.000
   14       -0.000   0.000   0.000   0.000
   15       -0.000  -0.000  -0.000  -0.000
   16       -0.000   0.000   0.000   0.000
--------------------------------------------------
tot         -0.000   0.000  -0.000  -0.000
 


 magnetization (z)
 
# of ion       s       p       d       tot
------------------------------------------
    1        0.000  -0.003   0.000  -0.003
    2        0.000  -0.003   0.000  -0.003
    3       -0.000   0.004   0.000   0.003
    4       -0.000   0.002   0.000   0.002
    5        0.000  -0.003   0.000  -0.003
    6        0.000  -0.003   0.000  -0.003
    7       -0.000   0.004   0.000   0.003
    8       -0.000   0.002   0.000   0.002
    9        0.000  -0.000   0.002   0.002
   10       -0.000   0.000  -0.002  -0.002
   11        0.000  -0.000   0.002   0.002
   12       -0.000   0.000  -0.002  -0.002
   13        0.021   0.053   3.691   3.764
   14       -0.021  -0.053  -3.691  -3.764
   15        0.021   0.053   3.691   3.764
   16       -0.021  -0.053  -3.691  -3.764
--------------------------------------------------
tot          0.000  -0.000   0.001   0.000
 
 BZINTS: Fermi energy:  4.748116;172.000000 electrons
         Band energy:***********;  BLOECHL correction:  0.000000
 BZINTS: Fermi energy:  4.748116;172.000000 electrons
         Band energy:***********;  BLOECHL correction:  0.000000
 BZINTS: Fermi energy:  4.748116;172.000000 electrons
         Band energy:***********;  BLOECHL correction:  0.000000
 BZINTS: Fermi energy:  4.748116;172.000000 electrons
         Band energy:***********;  BLOECHL correction:  0.000000

 total amount of memory used by VASP MPI-rank0    81827. kBytes
=======================================================================

   base      :      30000. kBytes
   nonl-proj :       6323. kBytes
   fftplans  :       1447. kBytes
   grid      :       5898. kBytes
   one-center:         62. kBytes
   wavefun   :      38097. kBytes
 
  
  
 General timing and accounting informations for this job:
 ========================================================
  
                  Total CPU time used (sec):      395.386
                            User time (sec):      383.225
                          System time (sec):       12.160
                         Elapsed time (sec):      471.364
  
                   Maximum memory used (kb):      542556.
                   Average memory used (kb):           0.
  
                          Minor page faults:       311097
                          Major page faults:         2888
                 Voluntary context switches:         6549
