       N       E                     dE             d eps       ncg     rms          rms(c)
DAV:   1     0.605367559990E+04    0.60537E+04   -0.51616E+05 16384   0.196E+03
DAV:   2    -0.812701922880E+02   -0.61349E+04   -0.60252E+04 18176   0.446E+02
DAV:   3    -0.327350774852E+03   -0.24608E+03   -0.24523E+03 23040   0.971E+01
DAV:   4    -0.330731095735E+03   -0.33803E+01   -0.33802E+01 19456   0.114E+01
DAV:   5    -0.330834632108E+03   -0.10354E+00   -0.10354E+00 21760   0.197E+00    0.134E+01
DAV:   6    -0.328490351897E+03    0.23443E+01   -0.21661E+00 25856   0.496E+00    0.723E+00
DAV:   7    -0.327826865816E+03    0.66349E+00   -0.18732E+00 25600   0.385E+00    0.452E+00
DAV:   8    -0.327762465694E+03    0.64400E-01   -0.14725E+00 22272   0.334E+00    0.333E+00
DAV:   9    -0.327719277261E+03    0.43188E-01   -0.65423E-01 22016   0.219E+00    0.167E+00
DAV:  10    -0.327719562106E+03   -0.28485E-03   -0.33121E-02 23040   0.522E-01    0.788E-01
DAV:  11    -0.327722025781E+03   -0.24637E-02   -0.10871E-02 23296   0.228E-01    0.372E-01
DAV:  12    -0.327723771564E+03   -0.17458E-02   -0.64240E-03 19200   0.137E-01    0.146E-01
DAV:  13    -0.327723974125E+03   -0.20256E-03   -0.78164E-04 22016   0.616E-02    0.827E-02
DAV:  14    -0.327724125254E+03   -0.15113E-03   -0.41688E-04 22016   0.235E-02    0.440E-02
DAV:  15    -0.327724199745E+03   -0.74491E-04   -0.21481E-04 20992   0.147E-02    0.220E-02
DAV:  16    -0.327724217727E+03   -0.17983E-04   -0.40645E-05 19456   0.724E-03    0.154E-02
DAV:  17    -0.327724233055E+03   -0.15328E-04   -0.80506E-05 21504   0.869E-03    0.710E-03
DAV:  18    -0.327724235685E+03   -0.26301E-05   -0.19640E-05 20480   0.503E-03    0.468E-03
DAV:  19    -0.327724235857E+03   -0.17147E-06   -0.69606E-07 19456   0.130E-03    0.359E-03
DAV:  20    -0.327724235947E+03   -0.90033E-07   -0.66702E-07 22528   0.102E-03    0.107E-03
DAV:  21    -0.327724235990E+03   -0.43045E-07   -0.12206E-07 19456   0.471E-04    0.918E-04
DAV:  22    -0.327724236007E+03   -0.17666E-07   -0.16239E-08 16128   0.177E-04    0.544E-04
DAV:  23    -0.327724236012E+03   -0.49040E-08   -0.60114E-09 14848   0.122E-04
   1 F= -.32772424E+03 E0= -.32772424E+03  d E =0.000000E+00  mag=     0.0000
