 vasp.5.4.4.18Apr17-6-g9f103f2a35 (build Oct 30 2023 17:30:16) complex          
  
 executed on             LinuxIFC date 2024.06.30  04:40:39
 running on  256 total cores
 distrk:  each k-point on  256 cores,    1 groups
 distr:  one band on NCORES_PER_BAND=   1 cores,  256 groups


--------------------------------------------------------------------------------------------------------


 INCAR:
 POTCAR:    PAW_PBE S 06Sep2000                   
 POTCAR:     PAW_PBE Cu_pv 06Sep2000              
 POTCAR:     PAW_PBE Fe_pv 02Aug2007              

 ----------------------------------------------------------------------------- 
|                                                                             |
|           W    W    AA    RRRRR   N    N  II  N    N   GGGG   !!!           |
|           W    W   A  A   R    R  NN   N  II  NN   N  G    G  !!!           |
|           W    W  A    A  R    R  N N  N  II  N N  N  G       !!!           |
|           W WW W  AAAAAA  RRRRR   N  N N  II  N  N N  G  GGG   !            |
|           WW  WW  A    A  R   R   N   NN  II  N   NN  G    G                |
|           W    W  A    A  R    R  N    N  II  N    N   GGGG   !!!           |
|                                                                             |
|      For optimal performance we recommend to set                            |
|        NCORE= 4 - approx SQRT( number of cores)                             |
|      NCORE specifies how many cores store one orbital (NPAR=cpu/NCORE).     |
|      This setting can  greatly improve the performance of VASP for DFT.     |
|      The default,   NCORE=1            might be grossly inefficient         |
|      on modern multi-core architectures or massively parallel machines.     |
|      Do your own testing !!!!                                               |
|      Unfortunately you need to use the default for GW and RPA calculations. |
|      (for HF NCORE is supported but not extensively tested yet)             |
|                                                                             |
 ----------------------------------------------------------------------------- 

 POTCAR:    PAW_PBE S 06Sep2000                   
   SHA256 =  0fc7481fb0695f01bdc6462160264c5c84044ae9ec85a907d398b887a2bc3132 S/
   COPYR  = (c) Copyright 06Sep2000 Georg Kresse                                
   COPYR  = This file is part of the software VASP. Any use, copying, and all ot
   COPYR  = If you do not have a valid VASP license, you may not use, copy or di
   VRHFIN =S : s2p4                                                             
   LEXCH  = PE                                                                  
   EATOM  =   276.8230 eV,   20.3459 Ry                                         
                                                                                
   TITEL  = PAW_PBE S 06Sep2000                                                 
   LULTRA =        F    use ultrasoft PP ?                                      
   IUNSCR =        1    unscreen: 0-lin 1-nonlin 2-no                           
   RPACOR =    1.500    partial core radius                                     
   POMASS =   32.066; ZVAL   =    6.000    mass and valenz                      
   RCORE  =    1.900    outmost cutoff radius                                   
   RWIGS  =    2.200; RWIGS  =    1.164    wigner-seitz radius (au A)           
   ENMAX  =  258.689; ENMIN  =  194.016 eV                                      
   ICORE  =        2    local potential                                         
   LCOR   =        T    correct aug charges                                     
   LPAW   =        T    paw PP                                                  
   EAUG   =  335.092                                                            
   DEXC   =    0.000                                                            
   RMAX   =    1.942    core radius for proj-oper                               
   RAUG   =    1.300    factor for augmentation sphere                          
   RDEP   =    1.954    radius for radial grids                                 
   RDEPT  =    1.744    core radius for aug-charge                              
                                                                                
   Atomic configuration                                                         
    6 entries                                                                   
     n  l   j            E        occ.                                          
     1  0  0.50     -2405.8406   2.0000                                         
     2  0  0.50      -211.7007   2.0000                                         
     2  1  1.50      -156.4958   6.0000                                         
     3  0  0.50       -17.2562   2.0000                                         
     3  1  0.50        -7.0085   4.0000                                         
     3  2  1.50        -6.8029   0.0000                                         
   Description                                                                  
     l       E           TYP  RCUT    TYP  RCUT                                 
     0    -17.2561641     23  1.900                                             
     0    -15.8743224     23  1.900                                             
     1     -7.0085400     23  1.900                                             
     1     -2.7779785     23  1.900                                             
     2     -6.8029130     23  1.900                                             
  local pseudopotential read in
  partial core-charges read in
  partial kinetic energy density read in
  atomic valenz-charges read in
  non local Contribution for L=           0  read in
    real space projection operators read in
  non local Contribution for L=           0  read in
    real space projection operators read in
  non local Contribution for L=           1  read in
    real space projection operators read in
  non local Contribution for L=           1  read in
    real space projection operators read in
    PAW grid and wavefunctions read in
 
   number of l-projection  operators is LMAX  =           4
   number of lm-projection operators is LMMAX =           8
 
 POTCAR:     PAW_PBE Cu_pv 06Sep2000              
   SHA256 =  cb7b504e2ea725fe1f25c85a9ac77d4012ce94cd394135b722c4e25ec297f1cb Cu
   COPYR  = (c) Copyright 06Sep2000 Georg Kresse                                
   COPYR  = This file is part of the software VASP. Any use, copying, and all ot
   COPYR  = If you do not have a valid VASP license, you may not use, copy or di
   VRHFIN =Cu: d10 p1                                                           
   LEXCH  = PE                                                                  
   EATOM  =  4120.1201 eV,  302.8203 Ry                                         
                                                                                
   TITEL  = PAW_PBE Cu_pv 06Sep2000                                             
   LULTRA =        F    use ultrasoft PP ?                                      
   IUNSCR =        1    unscreen: 0-lin 1-nonlin 2-no                           
   RPACOR =    1.500    partial core radius                                     
   POMASS =   63.546; ZVAL   =   17.000    mass and valenz                      
   RCORE  =    2.000    outmost cutoff radius                                   
   RWIGS  =    2.000; RWIGS  =    1.058    wigner-seitz radius (au A)           
   ENMAX  =  368.648; ENMIN  =  276.486 eV                                      
   RCLOC  =    1.304    cutoff for local pot                                    
   LCOR   =        T    correct aug charges                                     
   LPAW   =        T    paw PP                                                  
   EAUG   =  758.233                                                            
   DEXC   =    0.000                                                            
   RMAX   =    2.046    core radius for proj-oper                               
   RAUG   =    1.300    factor for augmentation sphere                          
   RDEP   =    2.025    radius for radial grids                                 
   RDEPT  =    1.558    core radius for aug-charge                              
                                                                                
   Atomic configuration                                                         
    8 entries                                                                   
     n  l   j            E        occ.                                          
     1  0  0.50     -8850.2467   2.0000                                         
     2  0  0.50     -1062.3498   2.0000                                         
     2  1  1.50      -916.8226   6.0000                                         
     3  0  0.50      -114.6929   2.0000                                         
     3  1  1.50       -72.1325   6.0000                                         
     3  2  2.50        -5.0394  10.0000                                         
     4  0  0.50        -4.6097   1.0000                                         
     4  3  2.50        -1.3606   0.0000                                         
   Description                                                                  
     l       E           TYP  RCUT    TYP  RCUT                                 
     1    -72.1324777     23  1.700                                             
     1     -1.3605826     23  1.700                                             
     2     -5.0393776     23  2.000                                             
     2     -6.3999602     23  2.000                                             
     0     -4.6097062     23  1.800                                             
     0     14.1620818     23  1.800                                             
  local pseudopotential read in
  partial core-charges read in
  partial kinetic energy density read in
  atomic valenz-charges read in
  non local Contribution for L=           1  read in
    real space projection operators read in
  non local Contribution for L=           1  read in
    real space projection operators read in
  non local Contribution for L=           2  read in
    real space projection operators read in
  non local Contribution for L=           2  read in
    real space projection operators read in
  non local Contribution for L=           0  read in
    real space projection operators read in
  non local Contribution for L=           0  read in
    real space projection operators read in
    PAW grid and wavefunctions read in
 
   number of l-projection  operators is LMAX  =           6
   number of lm-projection operators is LMMAX =          18
 
 POTCAR:     PAW_PBE Fe_pv 02Aug2007              
   SHA256 =  5d22e414b1f82158bf2c7ecb8b97b28fd0923e48cadc1c3bf74d524558f5dd32 Fe
   COPYR  = (c) Copyright 02Aug2007 Georg Kresse                                
   COPYR  = This file is part of the software VASP. Any use, copying, and all ot
   COPYR  = If you do not have a valid VASP license, you may not use, copy or di
   VRHFIN =Fe:  3pd7s1                                                          
   LEXCH  = PE                                                                  
   EATOM  =  2457.4239 eV,  180.6156 Ry                                         
                                                                                
   TITEL  = PAW_PBE Fe_pv 02Aug2007                                             
   LULTRA =        F    use ultrasoft PP ?                                      
   IUNSCR =        1    unscreen: 0-lin 1-nonlin 2-no                           
   RPACOR =    1.750    partial core radius                                     
   POMASS =   55.847; ZVAL   =   14.000    mass and valenz                      
   RCORE  =    2.200    outmost cutoff radius                                   
   RWIGS  =    2.200; RWIGS  =    1.164    wigner-seitz radius (au A)           
   ENMAX  =  293.238; ENMIN  =  219.928 eV                                      
   ICORE  =        3    local potential                                         
   LCOR   =        T    correct aug charges                                     
   LPAW   =        T    paw PP                                                  
   EAUG   =  578.342                                                            
   DEXC   =    0.000                                                            
   RMAX   =    2.249    core radius for proj-oper                               
   RAUG   =    1.300    factor for augmentation sphere                          
   RDEP   =    2.296    radius for radial grids                                 
   RDEPT  =    1.766    core radius for aug-charge                              
                                                                                
   Atomic configuration                                                         
    8 entries                                                                   
     n  l   j            E        occ.                                          
     1  0  0.50     -6993.8440   2.0000                                         
     2  0  0.50      -814.6047   2.0000                                         
     2  1  1.50      -693.3689   6.0000                                         
     3  0  0.50       -89.4732   2.0000                                         
     3  1  1.50       -55.6373   6.0000                                         
     3  2  2.50        -3.8151   7.0000                                         
     4  0  0.50        -4.2551   1.0000                                         
     4  3  2.50        -1.3606   0.0000                                         
   Description                                                                  
     l       E           TYP  RCUT    TYP  RCUT                                 
     1    -55.6372668     23  2.000                                             
     1     -5.4423304     23  2.000                                             
     2     -3.8151096     23  2.200                                             
     2     -5.1756922     23  2.200                                             
     0     -4.2550951     23  2.200                                             
     0     27.2116520     23  2.200                                             
     3     -1.3605826     23  2.200                                             
  local pseudopotential read in
  partial core-charges read in
  partial kinetic energy density read in
  atomic valenz-charges read in
  non local Contribution for L=           1  read in
    real space projection operators read in
  non local Contribution for L=           1  read in
    real space projection operators read in
  non local Contribution for L=           2  read in
    real space projection operators read in
  non local Contribution for L=           2  read in
    real space projection operators read in
  non local Contribution for L=           0  read in
    real space projection operators read in
  non local Contribution for L=           0  read in
    real space projection operators read in
    PAW grid and wavefunctions read in
 
   number of l-projection  operators is LMAX  =           6
   number of lm-projection operators is LMMAX =          18
 

 ----------------------------------------------------------------------------- 
|                                                                             |
|  ADVICE TO THIS USER RUNNING 'VASP/VAMP'   (HEAR YOUR MASTER'S VOICE ...):  |
|                                                                             |
|      You have a (more or less) 'large supercell' and for larger cells       |
|      it might be more efficient to use real space projection opertators     |
|      So try LREAL= Auto  in the INCAR   file.                               |
|      Mind:          For very  accurate calculation you might also keep the  |
|      reciprocal projection scheme          (i.e. LREAL=.FALSE.)             |
|                                                                             |
 ----------------------------------------------------------------------------- 


 ----------------------------------------------------------------------------- 
|                                                                             |
|  ADVICE TO THIS USER RUNNING 'VASP/VAMP'   (HEAR YOUR MASTER'S VOICE ...):  |
|                                                                             |
|      You enforced a specific xc-type in the INCAR file,                     |
|      a different type was found on the POTCAR file                          |
|          I HOPE YOU KNOW, WHAT YOU ARE  DOING                               |
|                                                                             |
 ----------------------------------------------------------------------------- 

  PAW_PBE S 06Sep2000                   :
 energy of atom  1       EATOM= -276.8230
 kinetic energy error for atom=    0.0007 (will be added to EATOM!!)
   PAW_PBE Cu_pv 06Sep2000              :
 energy of atom  2       EATOM=-4120.1201
 kinetic energy error for atom=    0.0094 (will be added to EATOM!!)
   PAW_PBE Fe_pv 02Aug2007              :
 energy of atom  3       EATOM=-2457.4239
 kinetic energy error for atom=    0.0025 (will be added to EATOM!!)
 
 
 POSCAR: Fe16 Cu16 S32                           
  positions in direct lattice
  No initial velocities read in
 exchange correlation table for  LEXCH =       14
   RHO(1)=    0.500       N(1)  =     2000
   RHO(2)=  100.500       N(2)  =     4000
 


--------------------------------------------------------------------------------------------------------


 ion  position               nearest neighbor table
   1  0.126  0.121  0.126-  41 2.26  61 2.27  37 2.27  49 2.29
   2  0.626  0.121  0.126-  42 2.26  62 2.27  38 2.27  50 2.29
   3  0.126  0.621  0.126-  43 2.26  63 2.27  39 2.27  51 2.29
   4  0.626  0.621  0.126-  44 2.26  64 2.27  40 2.27  52 2.29
   5  0.374  0.371  0.124-  39 2.26  52 2.27  41 2.27  62 2.29
   6  0.874  0.371  0.124-  40 2.26  51 2.27  42 2.27  61 2.29
   7  0.374  0.871  0.124-  37 2.26  50 2.27  43 2.27  64 2.29
   8  0.874  0.871  0.124-  38 2.26  49 2.27  44 2.27  63 2.29
   9  0.125  0.371  0.875-  41 2.27  45 2.27  51 2.27  55 2.27
  10  0.625  0.371  0.875-  42 2.27  46 2.27  52 2.27  56 2.27
  11  0.125  0.871  0.875-  43 2.27  47 2.27  49 2.27  53 2.27
  12  0.625  0.871  0.875-  44 2.27  48 2.27  50 2.27  54 2.27
  13  0.375  0.123  0.875-  41 2.26  46 2.26  50 2.28  53 2.28
  14  0.875  0.123  0.875-  42 2.26  45 2.26  49 2.28  54 2.28
  15  0.375  0.623  0.875-  43 2.26  48 2.26  52 2.28  55 2.28
  16  0.875  0.623  0.875-  44 2.26  47 2.26  51 2.28  56 2.28
  17  0.124  0.121  0.624-  45 2.26  57 2.27  33 2.27  53 2.29
  18  0.624  0.121  0.624-  46 2.26  58 2.27  34 2.27  54 2.29
  19  0.124  0.621  0.624-  47 2.26  59 2.27  35 2.27  55 2.29
  20  0.624  0.621  0.624-  48 2.26  60 2.27  36 2.27  56 2.29
  21  0.376  0.371  0.626-  36 2.26  55 2.27  46 2.27  57 2.29
  22  0.876  0.371  0.626-  35 2.26  56 2.27  45 2.27  58 2.29
  23  0.376  0.871  0.626-  34 2.26  53 2.27  48 2.27  59 2.29
  24  0.876  0.871  0.626-  33 2.26  54 2.27  47 2.27  60 2.29
  25  0.375  0.121  0.375-  34 2.27  37 2.27  57 2.27  62 2.27
  26  0.875  0.121  0.375-  33 2.27  38 2.27  58 2.27  61 2.27
  27  0.375  0.621  0.375-  36 2.27  39 2.27  59 2.27  64 2.27
  28  0.875  0.621  0.375-  35 2.27  40 2.27  60 2.27  63 2.27
  29  0.125  0.373  0.375-  35 2.26  39 2.26  57 2.28  61 2.28
  30  0.625  0.373  0.375-  36 2.26  40 2.26  58 2.28  62 2.28
  31  0.125  0.873  0.375-  33 2.26  37 2.26  59 2.28  63 2.28
  32  0.625  0.873  0.375-  34 2.26  38 2.26  60 2.28  64 2.28
  33  0.999  0.003  0.500-  24 2.26  31 2.26  26 2.27  17 2.27
  34  0.499  0.003  0.500-  23 2.26  32 2.26  25 2.27  18 2.27
  35  0.999  0.503  0.500-  22 2.26  29 2.26  28 2.27  19 2.27
  36  0.499  0.503  0.500-  21 2.26  30 2.26  27 2.27  20 2.27
  37  0.251  0.003  0.250-   7 2.26  31 2.26  25 2.27   1 2.27
  38  0.751  0.003  0.250-   8 2.26  32 2.26  26 2.27   2 2.27
  39  0.251  0.503  0.250-   5 2.26  29 2.26  27 2.27   3 2.27
  40  0.751  0.503  0.250-   6 2.26  30 2.26  28 2.27   4 2.27
  41  0.249  0.253  0.000-   1 2.26  13 2.26   9 2.27   5 2.27
  42  0.749  0.253  0.000-   2 2.26  14 2.26  10 2.27   6 2.27
  43  0.249  0.753  0.000-   3 2.26  15 2.26  11 2.27   7 2.27
  44  0.749  0.753  0.000-   4 2.26  16 2.26  12 2.27   8 2.27
  45  0.001  0.253  0.750-  17 2.26  14 2.26   9 2.27  22 2.27
  46  0.501  0.253  0.750-  18 2.26  13 2.26  10 2.27  21 2.27
  47  0.001  0.753  0.750-  19 2.26  16 2.26  11 2.27  24 2.27
  48  0.501  0.753  0.750-  20 2.26  15 2.26  12 2.27  23 2.27
  49  0.999  0.003  0.000-   8 2.27  11 2.27  14 2.28   1 2.29
  50  0.499  0.003  0.000-   7 2.27  12 2.27  13 2.28   2 2.29
  51  0.999  0.503  0.000-   6 2.27   9 2.27  16 2.28   3 2.29
  52  0.499  0.503  0.000-   5 2.27  10 2.27  15 2.28   4 2.29
  53  0.251  0.003  0.750-  23 2.27  11 2.27  13 2.28  17 2.29
  54  0.751  0.003  0.750-  24 2.27  12 2.27  14 2.28  18 2.29
  55  0.251  0.503  0.750-  21 2.27   9 2.27  15 2.28  19 2.29
  56  0.751  0.503  0.750-  22 2.27  10 2.27  16 2.28  20 2.29
  57  0.249  0.253  0.500-  17 2.27  25 2.27  29 2.28  21 2.29
  58  0.749  0.253  0.500-  18 2.27  26 2.27  30 2.28  22 2.29
  59  0.249  0.753  0.500-  19 2.27  27 2.27  31 2.28  23 2.29
  60  0.749  0.753  0.500-  20 2.27  28 2.27  32 2.28  24 2.29
  61  0.001  0.253  0.250-   1 2.27  26 2.27  29 2.28   6 2.29
  62  0.501  0.253  0.250-   2 2.27  25 2.27  30 2.28   5 2.29
  63  0.001  0.753  0.250-   3 2.27  28 2.27  31 2.28   8 2.29
  64  0.501  0.753  0.250-   4 2.27  27 2.27  32 2.28   7 2.29
 
  LATTYP: Found a simple monoclinic cell.
 ALAT       =    15.2396059636
 B/A-ratio  =     0.6903444896
 C/A-ratio  =     1.5674933125
 COS(beta)  =    -0.9539228341
  
  Lattice vectors:
  
 A1 = ( -10.8268100000,   0.0000000000, -10.7250070000)
 A2 = (   0.0000000000, -10.5205780000,   0.0000000000)
 A3 = (  11.1446910000,   0.0000000000,  21.1289250000)


Analysis of symmetry for initial positions (statically):
=====================================================================
 Subroutine PRICEL returns following result:
 
  LATTYP: Found a base centered monoclinic cell.
 ALAT       =    11.3708644048
 B/A-ratio  =     0.4626111800
 C/A-ratio  =     0.9153897857
 COS(beta)  =    -0.8051808913
  
  Lattice vectors:
  
 A1 = (  -2.4682917500,  -2.6301445000,   5.1216867500)
 A2 = (  -2.4682917500,   2.6301445000,   5.1216867500)
 A3 = (  -0.3178810000,   0.0000000000, -10.4039180000)
 
   8 primitive cells build up your supercell.
 

 Routine SETGRP: Setting up the symmetry group for a 
 simple monoclinic supercell.


 Subroutine GETGRP returns: Found  2 space group operations
 (whereof  1 operations were pure point group operations)
 out of a pool of  4 trial point group operations.


The static configuration has the point symmetry C_1 .
 The point group associated with its full space group is C_2 .


Analysis of symmetry for dynamics (positions and initial velocities):
=====================================================================
 Subroutine PRICEL returns following result:
 
  LATTYP: Found a base centered monoclinic cell.
 ALAT       =    11.3708644048
 B/A-ratio  =     0.4626111800
 C/A-ratio  =     0.9153897857
 COS(beta)  =    -0.8051808913
  
  Lattice vectors:
  
 A1 = (  -2.4682917500,  -2.6301445000,   5.1216867500)
 A2 = (  -2.4682917500,   2.6301445000,   5.1216867500)
 A3 = (  -0.3178810000,   0.0000000000, -10.4039180000)
 
   8 primitive cells build up your supercell.
 

 Routine SETGRP: Setting up the symmetry group for a 
 simple monoclinic supercell.


 Subroutine GETGRP returns: Found  2 space group operations
 (whereof  1 operations were pure point group operations)
 out of a pool of  4 trial point group operations.


The dynamic configuration has the point symmetry C_1 .
 The point group associated with its full space group is C_2 .


Analysis of structural, dynamic, and magnetic symmetry:
=====================================================================
 Subroutine PRICEL returns following result:
 
  LATTYP: Found a base centered monoclinic cell.
 ALAT       =    11.3708644048
 B/A-ratio  =     0.4626111800
 C/A-ratio  =     0.9153897857
 COS(beta)  =    -0.8051808913
  
  Lattice vectors:
  
 A1 = (  -2.4682917500,  -2.6301445000,   5.1216867500)
 A2 = (  -2.4682917500,   2.6301445000,   5.1216867500)
 A3 = (  -0.3178810000,   0.0000000000, -10.4039180000)
 
   8 primitive cells build up your supercell.
 

 Routine SETGRP: Setting up the symmetry group for a 
 simple monoclinic supercell.


 Subroutine GETGRP returns: Found  2 space group operations
 (whereof  1 operations were pure point group operations)
 out of a pool of  4 trial point group operations.


The magnetic configuration has the point symmetry C_1 .
 The point group associated with its full space group is C_2 .


 Subroutine INISYM returns: Found  2 space group operations
 (whereof  1 operations are pure point group operations),
 and found     8 'primitive' translations

 
 
 KPOINTS: Automatic mesh                          

Automatic generation of k-mesh.
Space group operators:
 irot       det(A)        alpha          n_x          n_y          n_z        tau_x        tau_y        tau_z
    1     1.000000     0.000000     1.000000     0.000000     0.000000     0.000000     0.000000     0.000000
    2     1.000000   180.000000     0.000000     1.000000     0.000000    -0.250000     0.000000    -0.250000
 
 Subroutine IBZKPT returns following result:
 ===========================================
 
 Found      8 irreducible k-points:
 
 Following reciprocal coordinates:
            Coordinates               Weight
  0.000000  0.000000  0.000000      1.000000
  0.500000  0.000000  0.000000      1.000000
  0.000000  0.500000  0.000000      1.000000
  0.500000  0.500000  0.000000      1.000000
 -0.000000  0.000000  0.500000      1.000000
  0.500000  0.000000  0.500000      1.000000
 -0.000000  0.500000  0.500000      1.000000
  0.500000  0.500000  0.500000      1.000000
 
 Following cartesian coordinates:
            Coordinates               Weight
  0.000000  0.000000  0.000000      1.000000
  0.047623  0.000000 -0.001455      1.000000
  0.000000  0.047526  0.000000      1.000000
  0.047623  0.047526 -0.001455      1.000000
 -0.001470  0.000000  0.048104      1.000000
  0.046153  0.000000  0.046649      1.000000
 -0.001470  0.047526  0.048104      1.000000
  0.046153  0.047526  0.046649      1.000000
 
 TETIRR: Found     24 inequivalent tetrahedra from       48
 
 Subroutine IBZKPT_HF returns following result:
 ==============================================
 
 Found      8 k-points in 1st BZ
 the following      8 k-points will be used (e.g. in the exchange kernel)
 Following reciprocal coordinates:   # in IRBZ
  0.000000  0.000000  0.000000    0.12500000   1 t-inv F
  0.500000  0.000000  0.000000    0.12500000   2 t-inv F
  0.000000  0.500000  0.000000    0.12500000   3 t-inv F
  0.500000  0.500000  0.000000    0.12500000   4 t-inv F
 -0.000000  0.000000  0.500000    0.12500000   5 t-inv F
  0.500000  0.000000  0.500000    0.12500000   6 t-inv F
 -0.000000  0.500000  0.500000    0.12500000   7 t-inv F
  0.500000  0.500000  0.500000    0.12500000   8 t-inv F


--------------------------------------------------------------------------------------------------------




 Dimension of arrays:
   k-points           NKPTS =      8   k-points in BZ     NKDIM =      8   number of bands    NBANDS=    512
   number of dos      NEDOS =    301   number of ions     NIONS =     64
   non local maximal  LDIM  =      6   non local SUM 2l+1 LMDIM =     18
   total plane-waves  NPLWV = 829440
   max r-space proj   IRMAX =      1   max aug-charges    IRDMAX=  22936
   dimension x,y,z NGX =    96 NGY =   96 NGZ =   90
   dimension x,y,z NGXF=   192 NGYF=  192 NGZF=  180
   support grid    NGXF=   192 NGYF=  192 NGZF=  180
   ions per type =              32  16  16
   NGX,Y,Z   is equivalent  to a cutoff of  15.18, 15.17, 14.37 a.u.
   NGXF,Y,Z  is equivalent  to a cutoff of  30.36, 30.34, 28.75 a.u.

 SYSTEM =  CuFeS2                                  
 POSCAR =  Fe16 Cu16 S32                           

 Startparameter for this run:
   NWRITE =      2    write-flag & timer
   PREC   = accura    normal or accurate (medium, high low for compatibility)
   ISTART =      0    job   : 0-new  1-cont  2-samecut
   ICHARG =      1    charge: 1-file 2-atom 10-const
   ISPIN  =      2    spin polarized calculation?
   LNONCOLLINEAR =      F non collinear calculations
   LSORBIT =      F    spin-orbit coupling
   INIWAV =      1    electr: 0-lowe 1-rand  2-diag
   LASPH  =      F    aspherical Exc in radial PAW
   METAGGA=      F    non-selfconsistent MetaGGA calc.

 Electronic Relaxation 1
   ENCUT  =  700.0 eV  51.45 Ry    7.17 a.u.  22.68 22.70 22.45*2*pi/ulx,y,z
   ENINI  =  700.0     initial cutoff
   ENAUG  =  758.2 eV  augmentation charge cutoff
   NELM   =    500;   NELMIN=  2; NELMDL=  0     # of ELM steps 
   EDIFF  = 0.1E-07   stopping-criterion for ELM
   LREAL  =      F    real-space projection
   NLSPLINE    = F    spline interpolate recip. space projectors
   LCOMPAT=      F    compatible to vasp.4.4
   GGA_COMPAT  = T    GGA compatible to vasp.4.4-vasp.4.6
   LMAXPAW     = -100 max onsite density
   LMAXMIX     =    4 max onsite mixed and CHGCAR
   VOSKOWN=      0    Vosko Wilk Nusair interpolation
   ROPT   =    0.00000   0.00000   0.00000
 Ionic relaxation
   EDIFFG = -.1E-04   stopping-criterion for IOM
   NSW    =      0    number of steps for IOM
   NBLOCK =      1;   KBLOCK =      1    inner block; outer block 
   IBRION =     -1    ionic relax: 0-MD 1-quasi-New 2-CG
   NFREE  =      0    steps in history (QN), initial steepest desc. (CG)
   ISIF   =      2    stress and relaxation
   IWAVPR =     10    prediction:  0-non 1-charg 2-wave 3-comb
   ISYM   =      2    0-nonsym 1-usesym 2-fastsym
   LCORR  =      T    Harris-Foulkes like correction to forces

   POTIM  = 0.5000    time-step for ionic-motion
   TEIN   =    0.0    initial temperature
   TEBEG  =    0.0;   TEEND  =   0.0 temperature during run
   SMASS  =  -3.00    Nose mass-parameter (am)
   estimated Nose-frequenzy (Omega)   =  0.10E-29 period in steps =****** mass=  -0.253E-26a.u.
   SCALEE = 1.0000    scale energy and forces
   NPACO  =    256;   APACO  = 16.0  distance and # of slots for P.C.
   PSTRESS=    0.0 pullay stress

  Mass of Ions in am
   POMASS =  32.07 63.55 55.85
  Ionic Valenz
   ZVAL   =   6.00 17.00 14.00
  Atomic Wigner-Seitz radii
   RWIGS  =  -1.00 -1.00 -1.00
  virtual crystal weights 
   VCA    =   1.00  1.00  1.00
   NELECT =     688.0000    total number of electrons
   NUPDOWN=      -1.0000    fix difference up-down

 DOS related values:
   EMIN   =  10.00;   EMAX   =-10.00  energy-range for DOS
   EFERMI =   0.00
   ISMEAR =    -5;   SIGMA  =   0.03  broadening in eV -4-tet -1-fermi 0-gaus

 Electronic relaxation 2 (details)
   IALGO  =     38    algorithm
   LDIAG  =      T    sub-space diagonalisation (order eigenvalues)
   LSUBROT=      F    optimize rotation matrix (better conditioning)
   TURBO    =      0    0=normal 1=particle mesh
   IRESTART =      0    0=no restart 2=restart with 2 vectors
   NREBOOT  =      0    no. of reboots
   NMIN     =      0    reboot dimension
   EREF     =   0.00    reference energy to select bands
   IMIX   =      4    mixing-type and parameters
     AMIX     =   0.40;   BMIX     =  1.00
     AMIX_MAG =   1.60;   BMIX_MAG =  1.00
     AMIN     =   0.10
     WC   =   100.;   INIMIX=   1;  MIXPRE=   1;  MAXMIX= -45

 Intra band minimization:
   WEIMIN = 0.0000     energy-eigenvalue tresh-hold
   EBREAK =  0.49E-11  absolut break condition
   DEPER  =   0.30     relativ break condition  

   TIME   =   0.40     timestep for ELM

  volume/ion in A,a.u.               =      17.96       121.17
  Fermi-wavevector in a.u.,A,eV,Ry     =   1.379774  2.607394 25.902437  1.903775
  Thomas-Fermi vector in A             =   2.504712
 
 Write flags
   LWAVE        =      T    write WAVECAR
   LDOWNSAMPLE  =      F    k-point downsampling of WAVECAR
   LCHARG       =      T    write CHGCAR
   LVTOT        =      F    write LOCPOT, total local potential
   LVHAR        =      F    write LOCPOT, Hartree potential only
   LELF         =      F    write electronic localiz. function (ELF)
   LORBIT       =     11    0 simple, 1 ext, 2 COOP (PROOUT), +10 PAW based schemes


 Dipole corrections
   LMONO  =      F    monopole corrections only (constant potential shift)
   LDIPOL =      F    correct potential (dipole corrections)
   IDIPOL =      0    1-x, 2-y, 3-z, 4-all directions 
   EPSILON=  1.0000000 bulk dielectric constant

 LDA+U is selected, type is set to LDAUTYPE =  2
   angular momentum for each species LDAUL =     2    2    2
   U (eV)           for each species LDAUU =   0.0  0.1  4.7
   J (eV)           for each species LDAUJ =   0.0  0.0  0.0
 Exchange correlation treatment:
   GGA     =    PS    GGA type
   LEXCH   =    14    internal setting for exchange type
   VOSKOWN=      0    Vosko Wilk Nusair interpolation
   LHFCALC =     F    Hartree Fock is set to
   LHFONE  =     F    Hartree Fock one center treatment
   AEXX    =    0.0000 exact exchange contribution

 Linear response parameters
   LEPSILON=     F    determine dielectric tensor
   LRPA    =     F    only Hartree local field effects (RPA)
   LNABLA  =     F    use nabla operator in PAW spheres
   LVEL    =     F    velocity operator in full k-point grid
   LINTERFAST=   F  fast interpolation
   KINTER  =     0    interpolate to denser k-point grid
   CSHIFT  =0.1000    complex shift for real part using Kramers Kronig
   OMEGAMAX=  -1.0    maximum frequency
   DEG_THRESHOLD= 0.2000000E-02 threshold for treating states as degnerate
   RTIME   =   -0.100 relaxation time in fs
  (WPLASMAI=    0.000 imaginary part of plasma frequency in eV, 0.658/RTIME)
   DFIELD  = 0.0000000 0.0000000 0.0000000 field for delta impulse in time
 
 Orbital magnetization related:
   ORBITALMAG=     F  switch on orbital magnetization
   LCHIMAG   =     F  perturbation theory with respect to B field
   DQ        =  0.001000  dq finite difference perturbation B field
   LLRAUG    =     F  two centre corrections for induced B field

 PEAD related settings:
   LPEAD      =     T    switch on PEAD
   IPEAD      =     4    finite difference order for dpsi/dk
   LCALCPOL   =     T    calculate macroscopic polarization
   LCALCEPS   =     F    calculate dielectric tensor
   EFIELD_PEAD=    0.0000    0.0000    0.0000
   SKIP_EDOTP =     F
   LRPA       =     F
   SKIP_SCF   =     F


--------------------------------------------------------------------------------------------------------


 Static calculation
 charge density and potential will be updated during run
 spin polarized calculation
 Variant of blocked Davidson
 Davidson routine will perform the subspace rotation
 perform sub-space diagonalisation
    after iterative eigenvector-optimisation
 modified Broyden-mixing scheme, WC =      100.0
 initial mixing is a Kerker type mixing with AMIX =  0.4000 and BMIX =      1.0000
 Hartree-type preconditioning will be used
 using additional bands          168
 reciprocal scheme for non local part
 use partial core corrections
 calculate Harris-corrections to forces 
   (improved forces if not selfconsistent)
 use gradient corrections 
 use of overlap-Matrix (Vanderbilt PP)
 Fermi weights with tetrahedron method with Bloechl corrections


--------------------------------------------------------------------------------------------------------


  energy-cutoff  :      700.00
  volume of cell :     1149.18
      direct lattice vectors                 reciprocal lattice vectors
    10.508929000  0.000000000  0.321089000     0.095246092  0.000000000 -0.002910146
     0.000000000 10.520578000  0.000000000     0.000000000  0.095051812  0.000000000
     0.317881000  0.000000000 10.403918000    -0.002939515  0.000000000  0.096207450

  length of vectors
    10.513833120 10.520578000 10.408773130     0.095290540  0.095051812  0.096252346


 
 k-points in units of 2pi/SCALE and weight: Automatic mesh                          
   0.00000000  0.00000000  0.00000000       0.125
   0.04762305  0.00000000 -0.00145507       0.125
   0.00000000  0.04752591  0.00000000       0.125
   0.04762305  0.04752591 -0.00145507       0.125
  -0.00146976  0.00000000  0.04810372       0.125
   0.04615329  0.00000000  0.04664865       0.125
  -0.00146976  0.04752591  0.04810372       0.125
   0.04615329  0.04752591  0.04664865       0.125
 
 k-points in reciprocal lattice and weights: Automatic mesh                          
   0.00000000  0.00000000  0.00000000       0.125
   0.50000000  0.00000000  0.00000000       0.125
   0.00000000  0.50000000  0.00000000       0.125
   0.50000000  0.50000000  0.00000000       0.125
  -0.00000000  0.00000000  0.50000000       0.125
   0.50000000  0.00000000  0.50000000       0.125
  -0.00000000  0.50000000  0.50000000       0.125
   0.50000000  0.50000000  0.50000000       0.125
 
 position of ions in fractional coordinates (direct lattice) 
   0.12626900  0.12110800  0.12560300
   0.62626900  0.12110800  0.12560300
   0.12626900  0.62110800  0.12560300
   0.62626900  0.62110800  0.12560300
   0.37373100  0.37110800  0.12439700
   0.87373100  0.37110800  0.12439700
   0.37373100  0.87110800  0.12439700
   0.87373100  0.87110800  0.12439700
   0.12500000  0.37142900  0.87500000
   0.62500000  0.37142900  0.87500000
   0.12500000  0.87142900  0.87500000
   0.62500000  0.87142900  0.87500000
   0.37500000  0.12342000  0.87500000
   0.87500000  0.12342000  0.87500000
   0.37500000  0.62342000  0.87500000
   0.87500000  0.62342000  0.87500000
   0.12373100  0.12110800  0.62439700
   0.62373100  0.12110800  0.62439700
   0.12373100  0.62110800  0.62439700
   0.62373100  0.62110800  0.62439700
   0.37626900  0.37110800  0.62560300
   0.87626900  0.37110800  0.62560300
   0.37626900  0.87110800  0.62560300
   0.87626900  0.87110800  0.62560300
   0.37500000  0.12142900  0.37500000
   0.87500000  0.12142900  0.37500000
   0.37500000  0.62142900  0.37500000
   0.87500000  0.62142900  0.37500000
   0.12500000  0.37342000  0.37500000
   0.62500000  0.37342000  0.37500000
   0.12500000  0.87342000  0.37500000
   0.62500000  0.87342000  0.37500000
   0.99868600  0.00329500  0.50000900
   0.49868600  0.00329500  0.50000900
   0.99868600  0.50329500  0.50000900
   0.49868600  0.50329500  0.50000900
   0.25131400  0.00329500  0.24999100
   0.75131400  0.00329500  0.24999100
   0.25131400  0.50329500  0.24999100
   0.75131400  0.50329500  0.24999100
   0.24868600  0.25329500  0.00000900
   0.74868600  0.25329500  0.00000900
   0.24868600  0.75329500  0.00000900
   0.74868600  0.75329500  0.00000900
   0.00131400  0.25329500  0.74999100
   0.50131400  0.25329500  0.74999100
   0.00131400  0.75329500  0.74999100
   0.50131400  0.75329500  0.74999100
   0.99928400  0.00317300  0.00030700
   0.49928400  0.00317300  0.00030700
   0.99928400  0.50317300  0.00030700
   0.49928400  0.50317300  0.00030700
   0.25071600  0.00317300  0.74969300
   0.75071600  0.00317300  0.74969300
   0.25071600  0.50317300  0.74969300
   0.75071600  0.50317300  0.74969300
   0.24928400  0.25317300  0.50030700
   0.74928400  0.25317300  0.50030700
   0.24928400  0.75317300  0.50030700
   0.74928400  0.75317300  0.50030700
   0.00071600  0.25317300  0.24969300
   0.50071600  0.25317300  0.24969300
   0.00071600  0.75317300  0.24969300
   0.50071600  0.75317300  0.24969300
 
 position of ions in cartesian coordinates  (Angst):
   1.36687876  1.27412616  1.34730690
   6.62134326  1.27412616  1.50785140
   1.36687876  6.53441516  1.34730690
   6.62134326  6.53441516  1.50785140
   3.96705599  3.90427066  1.41421710
   9.22152049  3.90427066  1.57476160
   3.96705599  9.16455966  1.41421710
   9.22152049  9.16455966  1.57476160
   1.59176200  3.90764777  9.14356438
   6.84622650  3.90764777  9.30410888
   1.59176200  9.16793677  9.14356438
   6.84622650  9.16793677  9.30410888
   4.21899425  1.29844974  9.22383663
   9.47345875  1.29844974  9.38438113
   4.21899425  6.55873874  9.22383663
   9.47345875  6.55873874  9.38438113
   1.49876424  1.27412616  6.53590385
   6.75322874  1.27412616  6.69644835
   1.49876424  6.53441516  6.53590385
   6.75322874  6.53441516  6.69644835
   4.15305151  3.90427066  6.62953815
   9.40751601  3.90427066  6.79008265
   4.15305151  9.16455966  6.62953815
   9.40751601  9.16455966  6.79008265
   4.06005375  1.27750327  4.02187763
   9.31451825  1.27750327  4.18242213
   4.06005375  6.53779227  4.02187763
   9.31451825  6.53779227  4.18242213
   1.43282150  3.92859424  3.94160538
   6.68728600  3.92859424  4.10214988
   1.43282150  9.18888324  3.94160538
   6.68728600  9.18888324  4.10214988
  10.65406363  0.03466530  5.52271972
   5.39959913  0.03466530  5.36217522
  10.65406363  5.29495430  5.52271972
   5.39959913  5.29495430  5.36217522
   2.72050837  0.03466530  2.68158003
   7.97497287  0.03466530  2.84212453
   2.72050837  5.29495430  2.68158003
   7.97497287  5.29495430  2.84212453
   2.61342638  2.66480980  0.07994397
   7.86789088  2.66480980  0.24048847
   2.61342638  7.92509880  0.07994397
   7.86789088  7.92509880  0.24048847
   0.25221662  2.66480980  7.80326678
   5.50668112  2.66480980  7.96381128
   0.25221662  7.92509880  7.80326678
   5.50668112  7.92509880  7.96381128
  10.50150220  0.03338179  0.32405310
   5.24703770  0.03338179  0.16350860
  10.50150220  5.29367079  0.32405310
   5.24703770  5.29367079  0.16350860
   2.87306980  0.03338179  7.88024665
   8.12753430  0.03338179  8.04079115
   2.87306980  5.29367079  7.88024665
   8.12753430  5.29367079  8.04079115
   2.77874595  2.66352629  5.28519535
   8.03321045  2.66352629  5.44573985
   2.77874595  7.92381529  5.28519535
   8.03321045  7.92381529  5.44573985
   0.08689705  2.66352629  2.59801540
   5.34136155  2.66352629  2.75855990
   0.08689705  7.92381529  2.59801540
   5.34136155  7.92381529  2.75855990
 


--------------------------------------------------------------------------------------------------------


 k-point  1 :   0.0000 0.0000 0.0000  plane waves:   48327
 k-point  2 :   0.5000 0.0000 0.0000  plane waves:   48352
 k-point  3 :   0.0000 0.5000 0.0000  plane waves:   48354
 k-point  4 :   0.5000 0.5000 0.0000  plane waves:   48328
 k-point  5 :  -0.0000 0.0000 0.5000  plane waves:   48362
 k-point  6 :   0.5000 0.0000 0.5000  plane waves:   48312
 k-point  7 :  -0.0000 0.5000 0.5000  plane waves:   48332
 k-point  8 :   0.5000 0.5000 0.5000  plane waves:   48244

 maximum and minimum number of plane-waves per node :     48362    48244

 maximum number of plane-waves:     48362
 maximum index in each direction: 
   IXMAX=   22   IYMAX=   22   IZMAX=   22
   IXMIN=  -23   IYMIN=  -23   IZMIN=  -22


 serial   3D FFT for wavefunctions
 parallel 3D FFT for charge:
    minimum data exchange during FFTs selected (reduces bandwidth)


 total amount of memory used by VASP MPI-rank0   348353. kBytes
=======================================================================

   base      :      30000. kBytes
   nonl-proj :     216760. kBytes
   fftplans  :       4588. kBytes
   grid      :      69719. kBytes
   one-center:       1990. kBytes
   wavefun   :      25296. kBytes
 
     INWAV:  cpu time    0.0000: real time    0.0000
 Broyden mixing: mesh for mixing (old mesh)
   NGX = 45   NGY = 45   NGZ = 45
  (NGX  =192   NGY  =192   NGZ  =180)
  gives a total of  91125 points

 initial charge density was supplied:
 number of electron     688.0000147 magnetization      -0.0000000
 keeping initial charge density in first step


--------------------------------------------------------------------------------------------------------


 Maximum index for augmentation-charges          897 (set IRDMAX)


--------------------------------------------------------------------------------------------------------


 First call to EWALD:  gamma=   0.169
 Maximum number of real-space cells 3x 3x 3
 Maximum number of reciprocal cells 3x 3x 3

    FEWALD:  cpu time    0.0030: real time    0.0030


--------------------------------------- Iteration      1(   1)  ---------------------------------------


    POTLOK:  cpu time    0.3613: real time    0.4156
    SETDIJ:  cpu time    0.0147: real time    0.0148
     EDDAV:  cpu time   83.1989: real time   83.8703
 BZINTS: Fermi energy: 14.940904;688.000000 electrons
         Band energy:***********;  BLOECHL correction: -0.009983
       DOS:  cpu time    0.0400: real time    0.0401
    --------------------------------------------
      LOOP:  cpu time   83.6150: real time   84.3409

 eigenvalue-minimisations  : 16384
 total energy-change (2. order) : 0.6053676E+04  (-0.5161552E+05)
 number of electron     688.0000147 magnetization      -0.0000000
 augmentation part      688.0000147 magnetization      -0.0000000

 Free energy of the ion-electron system (eV)
  ---------------------------------------------------
  alpha Z        PSCENC =      2359.19737831
  Ewald energy   TEWEN  =    -62510.19800763
  -Hartree energ DENC   =    -42888.46961574
  -exchange      EXHF   =         0.00000000
  -V(xc)+E(xc)   XCENC  =      3285.11032391
  PAW double counting   =    112202.23326047  -115894.98524000
  entropy T*S    EENTRO =         0.00000000
  eigenvalues    EBANDS =     -4519.27760706
  atomic energy  EATOM  =    114020.06510763
  Solvation  Ediel_sol  =         0.00000000
  ---------------------------------------------------
  free energy    TOTEN  =      6053.67559990 eV

  energy without entropy =     6053.67559990  energy(sigma->0) =     6053.67559990


--------------------------------------------------------------------------------------------------------




--------------------------------------- Iteration      1(   2)  ---------------------------------------


     EDDAV:  cpu time   99.3112: real time  100.0585
 BZINTS: Fermi energy:  5.419312;688.000000 electrons
         Band energy:***********;  BLOECHL correction:  0.000000
       DOS:  cpu time    0.0066: real time    0.0066
    --------------------------------------------
      LOOP:  cpu time   99.3177: real time  100.0650

 eigenvalue-minimisations  : 18176
 total energy-change (2. order) :-0.6134946E+04  (-0.6025235E+04)
 number of electron     688.0000147 magnetization      -0.0000000
 augmentation part      688.0000147 magnetization      -0.0000000

 Free energy of the ion-electron system (eV)
  ---------------------------------------------------
  alpha Z        PSCENC =      2359.19737831
  Ewald energy   TEWEN  =    -62510.19800763
  -Hartree energ DENC   =    -42888.46961574
  -exchange      EXHF   =         0.00000000
  -V(xc)+E(xc)   XCENC  =      3285.11032391
  PAW double counting   =    112202.23326047  -115894.98524000
  entropy T*S    EENTRO =         0.00000000
  eigenvalues    EBANDS =    -10654.22339924
  atomic energy  EATOM  =    114020.06510763
  Solvation  Ediel_sol  =         0.00000000
  ---------------------------------------------------
  free energy    TOTEN  =       -81.27019229 eV

  energy without entropy =      -81.27019229  energy(sigma->0) =      -81.27019229


--------------------------------------------------------------------------------------------------------




--------------------------------------- Iteration      1(   3)  ---------------------------------------


     EDDAV:  cpu time  163.4913: real time  164.6084
 BZINTS: Fermi energy:  4.898136;688.000000 electrons
         Band energy:***********;  BLOECHL correction:  0.000000
       DOS:  cpu time    0.0061: real time    0.0061
    --------------------------------------------
      LOOP:  cpu time  163.4974: real time  164.6145

 eigenvalue-minimisations  : 23040
 total energy-change (2. order) :-0.2460806E+03  (-0.2452289E+03)
 number of electron     688.0000147 magnetization      -0.0000000
 augmentation part      688.0000147 magnetization      -0.0000000

 Free energy of the ion-electron system (eV)
  ---------------------------------------------------
  alpha Z        PSCENC =      2359.19737831
  Ewald energy   TEWEN  =    -62510.19800763
  -Hartree energ DENC   =    -42888.46961574
  -exchange      EXHF   =         0.00000000
  -V(xc)+E(xc)   XCENC  =      3285.11032391
  PAW double counting   =    112202.23326047  -115894.98524000
  entropy T*S    EENTRO =         0.00000000
  eigenvalues    EBANDS =    -10900.30398180
  atomic energy  EATOM  =    114020.06510763
  Solvation  Ediel_sol  =         0.00000000
  ---------------------------------------------------
  free energy    TOTEN  =      -327.35077485 eV

  energy without entropy =     -327.35077485  energy(sigma->0) =     -327.35077485


--------------------------------------------------------------------------------------------------------




--------------------------------------- Iteration      1(   4)  ---------------------------------------


     EDDAV:  cpu time  124.5356: real time  125.4218
 BZINTS: Fermi energy:  5.028866;688.000000 electrons
         Band energy:***********;  BLOECHL correction:  0.000000
       DOS:  cpu time    0.0060: real time    0.0061
    --------------------------------------------
      LOOP:  cpu time  124.5417: real time  125.4279

 eigenvalue-minimisations  : 19456
 total energy-change (2. order) :-0.3380321E+01  (-0.3380190E+01)
 number of electron     688.0000147 magnetization      -0.0000000
 augmentation part      688.0000147 magnetization      -0.0000000

 Free energy of the ion-electron system (eV)
  ---------------------------------------------------
  alpha Z        PSCENC =      2359.19737831
  Ewald energy   TEWEN  =    -62510.19800763
  -Hartree energ DENC   =    -42888.46961574
  -exchange      EXHF   =         0.00000000
  -V(xc)+E(xc)   XCENC  =      3285.11032391
  PAW double counting   =    112202.23326047  -115894.98524000
  entropy T*S    EENTRO =         0.00000000
  eigenvalues    EBANDS =    -10903.68430269
  atomic energy  EATOM  =    114020.06510763
  Solvation  Ediel_sol  =         0.00000000
  ---------------------------------------------------
  free energy    TOTEN  =      -330.73109574 eV

  energy without entropy =     -330.73109574  energy(sigma->0) =     -330.73109574


--------------------------------------------------------------------------------------------------------




--------------------------------------- Iteration      1(   5)  ---------------------------------------


     EDDAV:  cpu time  150.4002: real time  151.4351
 BZINTS: Fermi energy:  4.985932;688.000000 electrons
         Band energy:***********;  BLOECHL correction:  0.000000
       DOS:  cpu time    0.0060: real time    0.0060
    CHARGE:  cpu time    1.3871: real time    1.3954
    MIXING:  cpu time    0.0045: real time    0.0046
    --------------------------------------------
      LOOP:  cpu time  151.7979: real time  152.8411

 eigenvalue-minimisations  : 21760
 total energy-change (2. order) :-0.1035364E+00  (-0.1035358E+00)
 number of electron     688.0000122 magnetization      -0.0000000
 augmentation part      282.8078465 magnetization      -0.0000000

 Broyden mixing:
  rms(total) = 0.13448E+01    rms(broyden)= 0.13447E+01
  rms(prec ) = 0.15100E+01
  weight for this iteration     100.00

 Free energy of the ion-electron system (eV)
  ---------------------------------------------------
  alpha Z        PSCENC =      2359.19737831
  Ewald energy   TEWEN  =    -62510.19800763
  -Hartree energ DENC   =    -42888.46961574
  -exchange      EXHF   =         0.00000000
  -V(xc)+E(xc)   XCENC  =      3285.11032391
  PAW double counting   =    112202.23326047  -115894.98524000
  entropy T*S    EENTRO =         0.00000000
  eigenvalues    EBANDS =    -10903.78783906
  atomic energy  EATOM  =    114020.06510763
  Solvation  Ediel_sol  =         0.00000000
  ---------------------------------------------------
  free energy    TOTEN  =      -330.83463211 eV

  energy without entropy =     -330.83463211  energy(sigma->0) =     -330.83463211


--------------------------------------------------------------------------------------------------------




--------------------------------------- Iteration      1(   6)  ---------------------------------------


    POTLOK:  cpu time    0.1196: real time    0.1217
    SETDIJ:  cpu time    0.0126: real time    0.0126
     EDDAV:  cpu time  174.6342: real time  175.8328
 BZINTS: Fermi energy:  4.999405;688.000000 electrons
         Band energy:***********;  BLOECHL correction:  0.000000
       DOS:  cpu time    0.0060: real time    0.0060
    CHARGE:  cpu time    1.3848: real time    1.3943
    MIXING:  cpu time    0.0022: real time    0.0058
    --------------------------------------------
      LOOP:  cpu time  176.1593: real time  177.3734

 eigenvalue-minimisations  : 25856
 total energy-change (2. order) : 0.2344280E+01  (-0.2166064E+00)
 number of electron     688.0000121 magnetization      -0.0000000
 augmentation part      281.8468942 magnetization      -0.0000000

 Broyden mixing:
  rms(total) = 0.72312E+00    rms(broyden)= 0.72310E+00
  rms(prec ) = 0.81021E+00
  weight for this iteration     100.00

 eigenvalues of (default mixing * dielectric matrix)
  average eigenvalue GAMMA=   0.8893
  0.8893

 Free energy of the ion-electron system (eV)
  ---------------------------------------------------
  alpha Z        PSCENC =      2359.19737831
  Ewald energy   TEWEN  =    -62510.19800763
  -Hartree energ DENC   =    -42946.98837312
  -exchange      EXHF   =         0.00000000
  -V(xc)+E(xc)   XCENC  =      3286.88750524
  PAW double counting   =    112525.09673753  -116224.81813027
  entropy T*S    EENTRO =         0.00000000
  eigenvalues    EBANDS =    -10837.73256958
  atomic energy  EATOM  =    114020.06510763
  Solvation  Ediel_sol  =         0.00000000
  ---------------------------------------------------
  free energy    TOTEN  =      -328.49035190 eV

  energy without entropy =     -328.49035190  energy(sigma->0) =     -328.49035190


--------------------------------------------------------------------------------------------------------




--------------------------------------- Iteration      1(   7)  ---------------------------------------


    POTLOK:  cpu time    0.1218: real time    0.1227
    SETDIJ:  cpu time    0.0127: real time    0.0127
     EDDAV:  cpu time  177.5911: real time  178.7959
 BZINTS: Fermi energy:  4.956006;688.000000 electrons
         Band energy:***********;  BLOECHL correction:  0.000000
       DOS:  cpu time    0.0059: real time    0.0059
    CHARGE:  cpu time    1.3859: real time    1.3941
    MIXING:  cpu time    0.0016: real time    0.0052
    --------------------------------------------
      LOOP:  cpu time  179.1190: real time  180.3365

 eigenvalue-minimisations  : 25600
 total energy-change (2. order) : 0.6634861E+00  (-0.1873162E+00)
 number of electron     688.0000122 magnetization      -0.0000000
 augmentation part      282.5839975 magnetization      -0.0000000

 Broyden mixing:
  rms(total) = 0.45182E+00    rms(broyden)= 0.45181E+00
  rms(prec ) = 0.49164E+00
  weight for this iteration     100.00

 eigenvalues of (default mixing * dielectric matrix)
  average eigenvalue GAMMA=   1.1047
  1.6097  0.5997

 Free energy of the ion-electron system (eV)
  ---------------------------------------------------
  alpha Z        PSCENC =      2359.19737831
  Ewald energy   TEWEN  =    -62510.19800763
  -Hartree energ DENC   =    -42898.25522554
  -exchange      EXHF   =         0.00000000
  -V(xc)+E(xc)   XCENC  =      3285.74650006
  PAW double counting   =    112398.15243113  -116087.79126822
  entropy T*S    EENTRO =         0.00000000
  eigenvalues    EBANDS =    -10894.74378154
  atomic energy  EATOM  =    114020.06510763
  Solvation  Ediel_sol  =         0.00000000
  ---------------------------------------------------
  free energy    TOTEN  =      -327.82686582 eV

  energy without entropy =     -327.82686582  energy(sigma->0) =     -327.82686582


--------------------------------------------------------------------------------------------------------




--------------------------------------- Iteration      1(   8)  ---------------------------------------


    POTLOK:  cpu time    0.1221: real time    0.1230
    SETDIJ:  cpu time    0.0126: real time    0.0126
     EDDAV:  cpu time  153.4440: real time  154.4924
 BZINTS: Fermi energy:  4.970969;688.000000 electrons
         Band energy:***********;  BLOECHL correction:  0.000000
       DOS:  cpu time    0.0059: real time    0.0059
    CHARGE:  cpu time    1.3850: real time    1.3931
    MIXING:  cpu time    0.0015: real time    0.0248
    --------------------------------------------
      LOOP:  cpu time  154.9711: real time  156.0518

 eigenvalue-minimisations  : 22272
 total energy-change (2. order) : 0.6440012E-01  (-0.1472542E+00)
 number of electron     688.0000121 magnetization      -0.0000000
 augmentation part      282.3532532 magnetization      -0.0000000

 Broyden mixing:
  rms(total) = 0.33285E+00    rms(broyden)= 0.33284E+00
  rms(prec ) = 0.39473E+00
  weight for this iteration     100.00

 eigenvalues of (default mixing * dielectric matrix)
  average eigenvalue GAMMA=   0.9267
  1.7258  0.5271  0.5271

 Free energy of the ion-electron system (eV)
  ---------------------------------------------------
  alpha Z        PSCENC =      2359.19737831
  Ewald energy   TEWEN  =    -62510.19800763
  -Hartree energ DENC   =    -42930.45657566
  -exchange      EXHF   =         0.00000000
  -V(xc)+E(xc)   XCENC  =      3286.92381663
  PAW double counting   =    112360.66815086  -116054.45616770
  entropy T*S    EENTRO =         0.00000000
  eigenvalues    EBANDS =    -10859.50616813
  atomic energy  EATOM  =    114020.06510763
  Solvation  Ediel_sol  =         0.00000000
  ---------------------------------------------------
  free energy    TOTEN  =      -327.76246569 eV

  energy without entropy =     -327.76246569  energy(sigma->0) =     -327.76246569


--------------------------------------------------------------------------------------------------------




--------------------------------------- Iteration      1(   9)  ---------------------------------------


    POTLOK:  cpu time    0.1214: real time    0.1223
    SETDIJ:  cpu time    0.0126: real time    0.0126
     EDDAV:  cpu time  150.4353: real time  151.4677
 BZINTS: Fermi energy:  4.934227;688.000000 electrons
         Band energy:***********;  BLOECHL correction:  0.000000
       DOS:  cpu time    0.0059: real time    0.0059
    CHARGE:  cpu time    1.6752: real time    1.6844
    MIXING:  cpu time    0.0016: real time    0.0016
    --------------------------------------------
      LOOP:  cpu time  152.2519: real time  153.2945

 eigenvalue-minimisations  : 22016
 total energy-change (2. order) : 0.4318843E-01  (-0.6542289E-01)
 number of electron     688.0000121 magnetization       0.0000000
 augmentation part      282.2356030 magnetization       0.0000000

 Broyden mixing:
  rms(total) = 0.16707E+00    rms(broyden)= 0.16706E+00
  rms(prec ) = 0.17460E+00
  weight for this iteration     100.00

 eigenvalues of (default mixing * dielectric matrix)
  average eigenvalue GAMMA=   0.8774
  1.9389  0.7279  0.4832  0.3598

 Free energy of the ion-electron system (eV)
  ---------------------------------------------------
  alpha Z        PSCENC =      2359.19737831
  Ewald energy   TEWEN  =    -62510.19800763
  -Hartree energ DENC   =    -42926.10669204
  -exchange      EXHF   =         0.00000000
  -V(xc)+E(xc)   XCENC  =      3286.45241191
  PAW double counting   =    112349.09570366  -116043.09749324
  entropy T*S    EENTRO =         0.00000000
  eigenvalues    EBANDS =    -10863.12768586
  atomic energy  EATOM  =    114020.06510763
  Solvation  Ediel_sol  =         0.00000000
  ---------------------------------------------------
  free energy    TOTEN  =      -327.71927726 eV

  energy without entropy =     -327.71927726  energy(sigma->0) =     -327.71927726


--------------------------------------------------------------------------------------------------------




--------------------------------------- Iteration      1(  10)  ---------------------------------------


    POTLOK:  cpu time    0.1325: real time    0.1334
    SETDIJ:  cpu time    0.0164: real time    0.0164
     EDDAV:  cpu time  149.8508: real time  150.8919
 BZINTS: Fermi energy:  4.933427;688.000000 electrons
         Band energy:***********;  BLOECHL correction:  0.000000
       DOS:  cpu time    0.0059: real time    0.0059
    CHARGE:  cpu time    1.4018: real time    1.4102
    MIXING:  cpu time    0.0016: real time    0.0016
    --------------------------------------------
      LOOP:  cpu time  151.4090: real time  152.4595

 eigenvalue-minimisations  : 23040
 total energy-change (2. order) :-0.2848454E-03  (-0.3312063E-02)
 number of electron     688.0000121 magnetization       0.0000000
 augmentation part      282.1928734 magnetization       0.0000000

 Broyden mixing:
  rms(total) = 0.78828E-01    rms(broyden)= 0.78827E-01
  rms(prec ) = 0.81374E-01
  weight for this iteration     100.00

 eigenvalues of (default mixing * dielectric matrix)
  average eigenvalue GAMMA=   0.9748
  1.7508  1.5894  0.6728  0.5192  0.3421

 Free energy of the ion-electron system (eV)
  ---------------------------------------------------
  alpha Z        PSCENC =      2359.19737831
  Ewald energy   TEWEN  =    -62510.19800763
  -Hartree energ DENC   =    -42929.51206340
  -exchange      EXHF   =         0.00000000
  -V(xc)+E(xc)   XCENC  =      3286.57120146
  PAW double counting   =    112331.87668102  -116025.78631164
  entropy T*S    EENTRO =         0.00000000
  eigenvalues    EBANDS =    -10859.93354785
  atomic energy  EATOM  =    114020.06510763
  Solvation  Ediel_sol  =         0.00000000
  ---------------------------------------------------
  free energy    TOTEN  =      -327.71956211 eV

  energy without entropy =     -327.71956211  energy(sigma->0) =     -327.71956211


--------------------------------------------------------------------------------------------------------




--------------------------------------- Iteration      1(  11)  ---------------------------------------


    POTLOK:  cpu time    0.1290: real time    0.1300
    SETDIJ:  cpu time    0.0142: real time    0.0142
     EDDAV:  cpu time  167.0156: real time  168.1381
 BZINTS: Fermi energy:  4.929239;688.000000 electrons
         Band energy:***********;  BLOECHL correction:  0.000000
       DOS:  cpu time    0.0059: real time    0.0059
    CHARGE:  cpu time    1.3848: real time    1.3929
    MIXING:  cpu time    0.0014: real time    0.0015
    --------------------------------------------
      LOOP:  cpu time  168.5509: real time  169.6826

 eigenvalue-minimisations  : 23296
 total energy-change (2. order) :-0.2463675E-02  (-0.1087089E-02)
 number of electron     688.0000121 magnetization      -0.0000000
 augmentation part      282.2424545 magnetization      -0.0000000

 Broyden mixing:
  rms(total) = 0.37215E-01    rms(broyden)= 0.37215E-01
  rms(prec ) = 0.38127E-01
  weight for this iteration     100.00

 eigenvalues of (default mixing * dielectric matrix)
  average eigenvalue GAMMA=   1.1390
  2.1794  2.1794  0.9186  0.6536  0.5686  0.3346

 Free energy of the ion-electron system (eV)
  ---------------------------------------------------
  alpha Z        PSCENC =      2359.19737831
  Ewald energy   TEWEN  =    -62510.19800763
  -Hartree energ DENC   =    -42926.24496616
  -exchange      EXHF   =         0.00000000
  -V(xc)+E(xc)   XCENC  =      3286.48264251
  PAW double counting   =    112289.06710273  -115982.26254558
  entropy T*S    EENTRO =         0.00000000
  eigenvalues    EBANDS =    -10863.82873758
  atomic energy  EATOM  =    114020.06510763
  Solvation  Ediel_sol  =         0.00000000
  ---------------------------------------------------
  free energy    TOTEN  =      -327.72202578 eV

  energy without entropy =     -327.72202578  energy(sigma->0) =     -327.72202578


--------------------------------------------------------------------------------------------------------




--------------------------------------- Iteration      1(  12)  ---------------------------------------


    POTLOK:  cpu time    0.1179: real time    0.1217
    SETDIJ:  cpu time    0.0125: real time    0.0126
     EDDAV:  cpu time  116.4749: real time  117.3074
 BZINTS: Fermi energy:  4.929582;688.000000 electrons
         Band energy:***********;  BLOECHL correction:  0.000000
       DOS:  cpu time    0.0059: real time    0.0059
    CHARGE:  cpu time    1.3844: real time    1.3928
    MIXING:  cpu time    0.0015: real time    0.0015
    --------------------------------------------
      LOOP:  cpu time  117.9971: real time  118.8418

 eigenvalue-minimisations  : 19200
 total energy-change (2. order) :-0.1745783E-02  (-0.6423997E-03)
 number of electron     688.0000121 magnetization      -0.0000000
 augmentation part      282.2270539 magnetization      -0.0000000

 Broyden mixing:
  rms(total) = 0.14589E-01    rms(broyden)= 0.14588E-01
  rms(prec ) = 0.15829E-01
  weight for this iteration     100.00

 eigenvalues of (default mixing * dielectric matrix)
  average eigenvalue GAMMA=   1.1135
  2.2475  2.2475  1.0235  0.3334  0.6225  0.6225  0.6978

 Free energy of the ion-electron system (eV)
  ---------------------------------------------------
  alpha Z        PSCENC =      2359.19737831
  Ewald energy   TEWEN  =    -62510.19800763
  -Hartree energ DENC   =    -42927.78409382
  -exchange      EXHF   =         0.00000000
  -V(xc)+E(xc)   XCENC  =      3286.52063080
  PAW double counting   =    112259.79776249  -115953.30078430
  entropy T*S    EENTRO =         0.00000000
  eigenvalues    EBANDS =    -10862.02176504
  atomic energy  EATOM  =    114020.06510763
  Solvation  Ediel_sol  =         0.00000000
  ---------------------------------------------------
  free energy    TOTEN  =      -327.72377156 eV

  energy without entropy =     -327.72377156  energy(sigma->0) =     -327.72377156


--------------------------------------------------------------------------------------------------------




--------------------------------------- Iteration      1(  13)  ---------------------------------------


    POTLOK:  cpu time    0.1201: real time    0.1223
    SETDIJ:  cpu time    0.0126: real time    0.0126
     EDDAV:  cpu time  155.4922: real time  156.5369
 BZINTS: Fermi energy:  4.928547;688.000000 electrons
         Band energy:***********;  BLOECHL correction:  0.000000
       DOS:  cpu time    0.0059: real time    0.0059
    CHARGE:  cpu time    1.3829: real time    1.3915
    MIXING:  cpu time    0.0015: real time    0.0015
    --------------------------------------------
      LOOP:  cpu time  157.0153: real time  158.0708

 eigenvalue-minimisations  : 22016
 total energy-change (2. order) :-0.2025616E-03  (-0.7816429E-04)
 number of electron     688.0000121 magnetization       0.0000000
 augmentation part      282.2296362 magnetization       0.0000000

 Broyden mixing:
  rms(total) = 0.82723E-02    rms(broyden)= 0.82721E-02
  rms(prec ) = 0.87705E-02
  weight for this iteration     100.00

 eigenvalues of (default mixing * dielectric matrix)
  average eigenvalue GAMMA=   1.1145
  2.2670  2.2670  1.0599  1.0599  0.3333  0.6278  0.6278  0.6733

 Free energy of the ion-electron system (eV)
  ---------------------------------------------------
  alpha Z        PSCENC =      2359.19737831
  Ewald energy   TEWEN  =    -62510.19800763
  -Hartree energ DENC   =    -42927.24932623
  -exchange      EXHF   =         0.00000000
  -V(xc)+E(xc)   XCENC  =      3286.50551078
  PAW double counting   =    112253.16736432  -115946.53591304
  entropy T*S    EENTRO =         0.00000000
  eigenvalues    EBANDS =    -10862.67608825
  atomic energy  EATOM  =    114020.06510763
  Solvation  Ediel_sol  =         0.00000000
  ---------------------------------------------------
  free energy    TOTEN  =      -327.72397413 eV

  energy without entropy =     -327.72397413  energy(sigma->0) =     -327.72397413


--------------------------------------------------------------------------------------------------------




--------------------------------------- Iteration      1(  14)  ---------------------------------------


    POTLOK:  cpu time    0.1179: real time    0.1214
    SETDIJ:  cpu time    0.0127: real time    0.0128
     EDDAV:  cpu time  150.2076: real time  151.2219
 BZINTS: Fermi energy:  4.928402;688.000000 electrons
         Band energy:***********;  BLOECHL correction:  0.000000
       DOS:  cpu time    0.0059: real time    0.0059
    CHARGE:  cpu time    1.3811: real time    1.3894
    MIXING:  cpu time    0.0016: real time    0.0016
    --------------------------------------------
      LOOP:  cpu time  151.7270: real time  152.7531

 eigenvalue-minimisations  : 22016
 total energy-change (2. order) :-0.1511284E-03  (-0.4168764E-04)
 number of electron     688.0000121 magnetization       0.0000000
 augmentation part      282.2300591 magnetization       0.0000000

 Broyden mixing:
  rms(total) = 0.44019E-02    rms(broyden)= 0.44017E-02
  rms(prec ) = 0.45617E-02
  weight for this iteration     100.00

 eigenvalues of (default mixing * dielectric matrix)
  average eigenvalue GAMMA=   1.2099
  2.4550  2.4550  1.5195  1.5195  0.3333  0.7222  0.6104  0.6104  0.6640

 Free energy of the ion-electron system (eV)
  ---------------------------------------------------
  alpha Z        PSCENC =      2359.19737831
  Ewald energy   TEWEN  =    -62510.19800763
  -Hartree energ DENC   =    -42927.30665715
  -exchange      EXHF   =         0.00000000
  -V(xc)+E(xc)   XCENC  =      3286.51047185
  PAW double counting   =    112248.71295016  -115942.14170752
  entropy T*S    EENTRO =         0.00000000
  eigenvalues    EBANDS =    -10862.56366089
  atomic energy  EATOM  =    114020.06510763
  Solvation  Ediel_sol  =         0.00000000
  ---------------------------------------------------
  free energy    TOTEN  =      -327.72412525 eV

  energy without entropy =     -327.72412525  energy(sigma->0) =     -327.72412525


--------------------------------------------------------------------------------------------------------




--------------------------------------- Iteration      1(  15)  ---------------------------------------


    POTLOK:  cpu time    0.1206: real time    0.1214
    SETDIJ:  cpu time    0.0126: real time    0.0127
     EDDAV:  cpu time  142.5127: real time  143.4743
 BZINTS: Fermi energy:  4.928289;688.000000 electrons
         Band energy:***********;  BLOECHL correction:  0.000000
       DOS:  cpu time    0.0059: real time    0.0059
    CHARGE:  cpu time    1.3860: real time    1.3947
    MIXING:  cpu time    0.0017: real time    0.0017
    --------------------------------------------
      LOOP:  cpu time  144.0395: real time  145.0107

 eigenvalue-minimisations  : 20992
 total energy-change (2. order) :-0.7449080E-04  (-0.2148091E-04)
 number of electron     688.0000121 magnetization       0.0000000
 augmentation part      282.2286054 magnetization       0.0000000

 Broyden mixing:
  rms(total) = 0.21999E-02    rms(broyden)= 0.21996E-02
  rms(prec ) = 0.23332E-02
  weight for this iteration     100.00

 eigenvalues of (default mixing * dielectric matrix)
  average eigenvalue GAMMA=   1.2053
  2.7472  2.3139  1.8152  1.1417  1.1417  0.3333  0.6191  0.6191  0.7053  0.6168

 Free energy of the ion-electron system (eV)
  ---------------------------------------------------
  alpha Z        PSCENC =      2359.19737831
  Ewald energy   TEWEN  =    -62510.19800763
  -Hartree energ DENC   =    -42927.34458681
  -exchange      EXHF   =         0.00000000
  -V(xc)+E(xc)   XCENC  =      3286.51034817
  PAW double counting   =    112246.58406183  -115940.00659596
  entropy T*S    EENTRO =         0.00000000
  eigenvalues    EBANDS =    -10862.53190528
  atomic energy  EATOM  =    114020.06510763
  Solvation  Ediel_sol  =         0.00000000
  ---------------------------------------------------
  free energy    TOTEN  =      -327.72419974 eV

  energy without entropy =     -327.72419974  energy(sigma->0) =     -327.72419974


--------------------------------------------------------------------------------------------------------




--------------------------------------- Iteration      1(  16)  ---------------------------------------


    POTLOK:  cpu time    0.1213: real time    0.1221
    SETDIJ:  cpu time    0.0131: real time    0.0132
     EDDAV:  cpu time  126.4781: real time  127.3422
 BZINTS: Fermi energy:  4.928232;688.000000 electrons
         Band energy:***********;  BLOECHL correction:  0.000000
       DOS:  cpu time    0.0059: real time    0.0059
    CHARGE:  cpu time    1.3832: real time    1.3913
    MIXING:  cpu time    0.0020: real time    0.0025
    --------------------------------------------
      LOOP:  cpu time  128.0036: real time  128.8772

 eigenvalue-minimisations  : 19456
 total energy-change (2. order) :-0.1798288E-04  (-0.4064487E-05)
 number of electron     688.0000121 magnetization       0.0000000
 augmentation part      282.2301906 magnetization       0.0000000

 Broyden mixing:
  rms(total) = 0.15425E-02    rms(broyden)= 0.15424E-02
  rms(prec ) = 0.16298E-02
  weight for this iteration     100.00

 eigenvalues of (default mixing * dielectric matrix)
  average eigenvalue GAMMA=   1.2876
  3.0915  2.1806  2.1806  1.4750  1.4750  0.3333  0.8774  0.6188  0.6188  0.7049
  0.6076

 Free energy of the ion-electron system (eV)
  ---------------------------------------------------
  alpha Z        PSCENC =      2359.19737831
  Ewald energy   TEWEN  =    -62510.19800763
  -Hartree energ DENC   =    -42927.27814725
  -exchange      EXHF   =         0.00000000
  -V(xc)+E(xc)   XCENC  =      3286.50986302
  PAW double counting   =    112246.38966213  -115939.80171072
  entropy T*S    EENTRO =         0.00000000
  eigenvalues    EBANDS =    -10862.60836320
  atomic energy  EATOM  =    114020.06510763
  Solvation  Ediel_sol  =         0.00000000
  ---------------------------------------------------
  free energy    TOTEN  =      -327.72421773 eV

  energy without entropy =     -327.72421773  energy(sigma->0) =     -327.72421773


--------------------------------------------------------------------------------------------------------




--------------------------------------- Iteration      1(  17)  ---------------------------------------


    POTLOK:  cpu time    0.1198: real time    0.1215
    SETDIJ:  cpu time    0.0125: real time    0.0126
     EDDAV:  cpu time  146.8217: real time  147.8115
 BZINTS: Fermi energy:  4.928207;688.000000 electrons
         Band energy:***********;  BLOECHL correction:  0.000000
       DOS:  cpu time    0.0059: real time    0.0059
    CHARGE:  cpu time    1.3852: real time    1.3935
    MIXING:  cpu time    0.0019: real time    0.0019
    --------------------------------------------
      LOOP:  cpu time  148.3471: real time  149.3469

 eigenvalue-minimisations  : 21504
 total energy-change (2. order) :-0.1532782E-04  (-0.8050634E-05)
 number of electron     688.0000121 magnetization      -0.0000000
 augmentation part      282.2294009 magnetization      -0.0000000

 Broyden mixing:
  rms(total) = 0.70972E-03    rms(broyden)= 0.70943E-03
  rms(prec ) = 0.75440E-03
  weight for this iteration     100.00

 eigenvalues of (default mixing * dielectric matrix)
  average eigenvalue GAMMA=   1.3769
  4.1015  2.3514  2.3514  1.5797  1.5797  0.9955  0.3333  0.7294  0.6167  0.6167
  0.5955  0.6718

 Free energy of the ion-electron system (eV)
  ---------------------------------------------------
  alpha Z        PSCENC =      2359.19737831
  Ewald energy   TEWEN  =    -62510.19800763
  -Hartree energ DENC   =    -42927.31900568
  -exchange      EXHF   =         0.00000000
  -V(xc)+E(xc)   XCENC  =      3286.51082610
  PAW double counting   =    112246.76028977  -115940.18213518
  entropy T*S    EENTRO =         0.00000000
  eigenvalues    EBANDS =    -10862.55868637
  atomic energy  EATOM  =    114020.06510763
  Solvation  Ediel_sol  =         0.00000000
  ---------------------------------------------------
  free energy    TOTEN  =      -327.72423306 eV

  energy without entropy =     -327.72423306  energy(sigma->0) =     -327.72423306


--------------------------------------------------------------------------------------------------------




--------------------------------------- Iteration      1(  18)  ---------------------------------------


    POTLOK:  cpu time    0.1188: real time    0.1218
    SETDIJ:  cpu time    0.0127: real time    0.0128
     EDDAV:  cpu time  137.9421: real time  138.8771
 BZINTS: Fermi energy:  4.928160;688.000000 electrons
         Band energy:***********;  BLOECHL correction:  0.000000
       DOS:  cpu time    0.0059: real time    0.0059
    CHARGE:  cpu time    1.3838: real time    1.3919
    MIXING:  cpu time    0.0019: real time    0.0019
    --------------------------------------------
      LOOP:  cpu time  139.4653: real time  140.4114

 eigenvalue-minimisations  : 20480
 total energy-change (2. order) :-0.2630070E-05  (-0.1964027E-05)
 number of electron     688.0000121 magnetization      -0.0000000
 augmentation part      282.2296324 magnetization      -0.0000000

 Broyden mixing:
  rms(total) = 0.46759E-03    rms(broyden)= 0.46744E-03
  rms(prec ) = 0.48703E-03
  weight for this iteration     100.00

 eigenvalues of (default mixing * dielectric matrix)
  average eigenvalue GAMMA=   1.3402
  4.2772  2.3915  2.3915  1.4929  1.4929  1.1013  0.3333  0.7445  0.7445  0.6155
  0.6155  0.6112  0.6112

 Free energy of the ion-electron system (eV)
  ---------------------------------------------------
  alpha Z        PSCENC =      2359.19737831
  Ewald energy   TEWEN  =    -62510.19800763
  -Hartree energ DENC   =    -42927.28917303
  -exchange      EXHF   =         0.00000000
  -V(xc)+E(xc)   XCENC  =      3286.50983700
  PAW double counting   =    112247.02262869  -115940.43996702
  entropy T*S    EENTRO =         0.00000000
  eigenvalues    EBANDS =    -10862.59203965
  atomic energy  EATOM  =    114020.06510763
  Solvation  Ediel_sol  =         0.00000000
  ---------------------------------------------------
  free energy    TOTEN  =      -327.72423569 eV

  energy without entropy =     -327.72423569  energy(sigma->0) =     -327.72423569


--------------------------------------------------------------------------------------------------------




--------------------------------------- Iteration      1(  19)  ---------------------------------------


    POTLOK:  cpu time    0.1207: real time    0.1215
    SETDIJ:  cpu time    0.0125: real time    0.0125
     EDDAV:  cpu time  124.9449: real time  125.8149
 BZINTS: Fermi energy:  4.928155;688.000000 electrons
         Band energy:***********;  BLOECHL correction:  0.000000
       DOS:  cpu time    0.0059: real time    0.0059
    CHARGE:  cpu time    1.3856: real time    1.3938
    MIXING:  cpu time    0.0020: real time    0.0020
    --------------------------------------------
      LOOP:  cpu time  126.4715: real time  127.3506

 eigenvalue-minimisations  : 19456
 total energy-change (2. order) :-0.1714652E-06  (-0.6960584E-07)
 number of electron     688.0000121 magnetization      -0.0000000
 augmentation part      282.2296870 magnetization      -0.0000000

 Broyden mixing:
[...]
   -.416E+02 0.217E+02 -.173E+01   0.424E+02 -.218E+02 0.175E+01   -.843E+00 0.141E+00 -.211E-01   -.680E-05 -.141E-04 0.432E-05
   -.416E+02 0.217E+02 -.173E+01   0.424E+02 -.218E+02 0.175E+01   -.843E+00 0.141E+00 -.211E-01   -.684E-05 -.141E-04 0.432E-05
   -.416E+02 0.217E+02 -.173E+01   0.424E+02 -.218E+02 0.175E+01   -.843E+00 0.141E+00 -.211E-01   -.680E-05 -.141E-04 0.432E-05
   -.416E+02 0.217E+02 -.173E+01   0.424E+02 -.218E+02 0.175E+01   -.843E+00 0.141E+00 -.211E-01   -.684E-05 -.141E-04 0.432E-05
   0.416E+02 0.217E+02 0.173E+01   -.424E+02 -.218E+02 -.175E+01   0.843E+00 0.141E+00 0.211E-01   0.682E-05 -.141E-04 -.432E-05
   0.416E+02 0.217E+02 0.173E+01   -.424E+02 -.218E+02 -.175E+01   0.843E+00 0.141E+00 0.211E-01   0.682E-05 -.141E-04 -.432E-05
   0.416E+02 0.217E+02 0.173E+01   -.424E+02 -.218E+02 -.175E+01   0.843E+00 0.141E+00 0.211E-01   0.682E-05 -.141E-04 -.433E-05
   0.416E+02 0.217E+02 0.173E+01   -.424E+02 -.218E+02 -.175E+01   0.843E+00 0.141E+00 0.211E-01   0.682E-05 -.141E-04 -.433E-05
   -.224E-07 -.264E+02 -.219E-06   -.426E-13 0.271E+02 0.284E-13   0.206E-24 -.733E+00 0.969E-26   -.601E-09 -.186E-04 -.255E-08
   -.224E-07 -.264E+02 -.219E-06   -.284E-13 0.271E+02 -.240E-13   0.174E-24 -.733E+00 0.517E-25   0.596E-09 -.186E-04 0.255E-08
   -.224E-07 -.264E+02 -.219E-06   -.142E-13 0.271E+02 -.142E-13   -.129E-25 -.733E+00 -.103E-24   -.601E-09 -.187E-04 -.255E-08
   -.224E-07 -.264E+02 -.219E-06   -.284E-13 0.271E+02 -.107E-13   -.614E-25 -.733E+00 0.258E-25   0.596E-09 -.187E-04 0.255E-08
   0.125E-07 0.583E+02 0.216E-06   0.178E-14 -.593E+02 -.127E-12   -.243E-24 0.986E+00 0.103E-24   0.234E-07 -.101E-07 -.709E-09
   0.125E-07 0.583E+02 0.216E-06   0.462E-13 -.593E+02 -.174E-12   -.191E-24 0.986E+00 -.155E-24   -.234E-07 -.101E-07 0.707E-09
   0.125E-07 0.583E+02 0.216E-06   0.426E-13 -.593E+02 -.959E-13   0.435E-24 0.986E+00 -.233E-24   0.234E-07 -.103E-07 -.709E-09
   0.125E-07 0.583E+02 0.216E-06   0.000E+00 -.593E+02 -.853E-13   0.158E-24 0.986E+00 0.103E-24   -.234E-07 -.104E-07 0.707E-09
   0.407E+01 -.201E+02 0.140E+01   -.402E+01 0.193E+02 -.142E+01   -.479E-01 0.810E+00 0.244E-01   0.105E-04 -.347E-04 -.319E-05
   0.407E+01 -.201E+02 0.140E+01   -.402E+01 0.193E+02 -.142E+01   -.479E-01 0.810E+00 0.244E-01   0.104E-04 -.347E-04 -.319E-05
   0.407E+01 -.201E+02 0.140E+01   -.402E+01 0.193E+02 -.142E+01   -.479E-01 0.810E+00 0.244E-01   0.105E-04 -.348E-04 -.318E-05
   0.407E+01 -.201E+02 0.140E+01   -.402E+01 0.193E+02 -.142E+01   -.479E-01 0.810E+00 0.244E-01   0.104E-04 -.348E-04 -.318E-05
   -.407E+01 -.201E+02 -.140E+01   0.402E+01 0.193E+02 0.142E+01   0.479E-01 0.810E+00 -.244E-01   -.104E-04 -.347E-04 0.319E-05
   -.407E+01 -.201E+02 -.140E+01   0.402E+01 0.193E+02 0.142E+01   0.479E-01 0.810E+00 -.244E-01   -.105E-04 -.347E-04 0.319E-05
   -.407E+01 -.201E+02 -.140E+01   0.402E+01 0.193E+02 0.142E+01   0.479E-01 0.810E+00 -.244E-01   -.104E-04 -.348E-04 0.318E-05
   -.407E+01 -.201E+02 -.140E+01   0.402E+01 0.193E+02 0.142E+01   0.479E-01 0.810E+00 -.244E-01   -.105E-04 -.348E-04 0.319E-05
   0.407E+01 -.201E+02 0.140E+01   -.402E+01 0.193E+02 -.142E+01   -.479E-01 0.810E+00 0.244E-01   0.105E-04 -.347E-04 -.319E-05
   0.407E+01 -.201E+02 0.140E+01   -.402E+01 0.193E+02 -.142E+01   -.479E-01 0.810E+00 0.244E-01   0.104E-04 -.347E-04 -.319E-05
   0.407E+01 -.201E+02 0.140E+01   -.402E+01 0.193E+02 -.142E+01   -.479E-01 0.810E+00 0.244E-01   0.105E-04 -.348E-04 -.318E-05
   0.407E+01 -.201E+02 0.140E+01   -.402E+01 0.193E+02 -.142E+01   -.479E-01 0.810E+00 0.244E-01   0.104E-04 -.348E-04 -.319E-05
   -.407E+01 -.201E+02 -.140E+01   0.402E+01 0.193E+02 0.142E+01   0.479E-01 0.810E+00 -.244E-01   -.104E-04 -.347E-04 0.318E-05
   -.407E+01 -.201E+02 -.140E+01   0.402E+01 0.193E+02 0.142E+01   0.479E-01 0.810E+00 -.244E-01   -.105E-04 -.347E-04 0.320E-05
   -.407E+01 -.201E+02 -.140E+01   0.402E+01 0.193E+02 0.142E+01   0.479E-01 0.810E+00 -.244E-01   -.104E-04 -.348E-04 0.317E-05
   -.407E+01 -.201E+02 -.140E+01   0.402E+01 0.193E+02 0.142E+01   0.479E-01 0.810E+00 -.244E-01   -.105E-04 -.348E-04 0.319E-05
   -.532E+01 -.197E+02 0.172E+01   0.522E+01 0.186E+02 -.176E+01   0.103E+00 0.107E+01 0.377E-01   0.150E-04 -.105E-04 -.156E-05
   -.532E+01 -.197E+02 0.172E+01   0.522E+01 0.186E+02 -.176E+01   0.103E+00 0.107E+01 0.377E-01   0.149E-04 -.105E-04 -.156E-05
   -.532E+01 -.197E+02 0.172E+01   0.522E+01 0.186E+02 -.176E+01   0.103E+00 0.107E+01 0.377E-01   0.150E-04 -.106E-04 -.157E-05
   -.532E+01 -.197E+02 0.172E+01   0.522E+01 0.186E+02 -.176E+01   0.103E+00 0.107E+01 0.377E-01   0.149E-04 -.106E-04 -.156E-05
   0.532E+01 -.197E+02 -.172E+01   -.522E+01 0.186E+02 0.176E+01   -.103E+00 0.107E+01 -.377E-01   -.149E-04 -.105E-04 0.156E-05
   0.532E+01 -.197E+02 -.172E+01   -.522E+01 0.186E+02 0.176E+01   -.103E+00 0.107E+01 -.377E-01   -.150E-04 -.105E-04 0.156E-05
   0.532E+01 -.197E+02 -.172E+01   -.522E+01 0.186E+02 0.176E+01   -.103E+00 0.107E+01 -.377E-01   -.149E-04 -.106E-04 0.157E-05
   0.532E+01 -.197E+02 -.172E+01   -.522E+01 0.186E+02 0.176E+01   -.103E+00 0.107E+01 -.377E-01   -.150E-04 -.106E-04 0.157E-05
   -.532E+01 -.197E+02 0.172E+01   0.522E+01 0.186E+02 -.176E+01   0.103E+00 0.107E+01 0.377E-01   0.150E-04 -.105E-04 -.157E-05
   -.532E+01 -.197E+02 0.172E+01   0.522E+01 0.186E+02 -.176E+01   0.103E+00 0.107E+01 0.377E-01   0.149E-04 -.105E-04 -.156E-05
   -.532E+01 -.197E+02 0.172E+01   0.522E+01 0.186E+02 -.176E+01   0.103E+00 0.107E+01 0.377E-01   0.150E-04 -.106E-04 -.157E-05
   -.532E+01 -.197E+02 0.172E+01   0.522E+01 0.186E+02 -.176E+01   0.103E+00 0.107E+01 0.377E-01   0.149E-04 -.106E-04 -.156E-05
   0.532E+01 -.197E+02 -.172E+01   -.522E+01 0.186E+02 0.176E+01   -.103E+00 0.107E+01 -.377E-01   -.149E-04 -.105E-04 0.156E-05
   0.532E+01 -.197E+02 -.172E+01   -.522E+01 0.186E+02 0.176E+01   -.103E+00 0.107E+01 -.377E-01   -.150E-04 -.105E-04 0.156E-05
   0.532E+01 -.197E+02 -.172E+01   -.522E+01 0.186E+02 0.176E+01   -.103E+00 0.107E+01 -.377E-01   -.149E-04 -.106E-04 0.157E-05
   0.532E+01 -.197E+02 -.172E+01   -.522E+01 0.186E+02 0.176E+01   -.103E+00 0.107E+01 -.377E-01   -.150E-04 -.106E-04 0.156E-05
 -----------------------------------------------------------------------------------------------
   -.331E-05 -.343E+02 -.241E-03   0.589E-12 -.313E-12 -.174E-12   -.291E-15 0.343E+02 0.139E-16   -.120E-10 -.110E-02 -.125E-10
 
 
 POSITION                                       TOTAL-FORCE (eV/Angst)
 -----------------------------------------------------------------------------------
      1.36688      1.27413      1.34731         0.000082     -0.003612      0.000584
      6.62134      1.27413      1.50785         0.000082     -0.003612      0.000584
      1.36688      6.53442      1.34731         0.000082     -0.003612      0.000584
      6.62134      6.53442      1.50785         0.000082     -0.003612      0.000584
      3.96706      3.90427      1.41422        -0.000082     -0.003612     -0.000584
      9.22152      3.90427      1.57476        -0.000082     -0.003612     -0.000584
      3.96706      9.16456      1.41422        -0.000082     -0.003612     -0.000584
      9.22152      9.16456      1.57476        -0.000082     -0.003612     -0.000584
      1.59176      3.90765      9.14356         0.000000     -0.003736     -0.000000
      6.84623      3.90765      9.30411         0.000000     -0.003736     -0.000000
      1.59176      9.16794      9.14356         0.000000     -0.003736     -0.000000
      6.84623      9.16794      9.30411         0.000000     -0.003736     -0.000000
      4.21899      1.29845      9.22384         0.000000     -0.000942     -0.000000
      9.47346      1.29845      9.38438         0.000000     -0.000942     -0.000000
      4.21899      6.55874      9.22384         0.000000     -0.000942     -0.000000
      9.47346      6.55874      9.38438         0.000000     -0.000942     -0.000000
      1.49876      1.27413      6.53590        -0.000082     -0.003612     -0.000584
      6.75323      1.27413      6.69645        -0.000082     -0.003612     -0.000584
      1.49876      6.53442      6.53590        -0.000082     -0.003612     -0.000584
      6.75323      6.53442      6.69645        -0.000082     -0.003612     -0.000584
      4.15305      3.90427      6.62954         0.000082     -0.003612      0.000584
      9.40752      3.90427      6.79008         0.000082     -0.003612      0.000584
      4.15305      9.16456      6.62954         0.000082     -0.003612      0.000584
      9.40752      9.16456      6.79008         0.000082     -0.003612      0.000584
      4.06005      1.27750      4.02188         0.000000     -0.003736     -0.000000
      9.31452      1.27750      4.18242         0.000000     -0.003736     -0.000000
      4.06005      6.53779      4.02188         0.000000     -0.003736     -0.000000
      9.31452      6.53779      4.18242         0.000000     -0.003736     -0.000000
      1.43282      3.92859      3.94161         0.000000     -0.000942     -0.000000
      6.68729      3.92859      4.10215         0.000000     -0.000942     -0.000000
      1.43282      9.18888      3.94161         0.000000     -0.000942     -0.000000
      6.68729      9.18888      4.10215         0.000000     -0.000942     -0.000000
     10.65406      0.03467      5.52272         0.001265      0.002719     -0.003178
      5.39960      0.03467      5.36218         0.001265      0.002719     -0.003178
     10.65406      5.29495      5.52272         0.001265      0.002719     -0.003178
      5.39960      5.29495      5.36218         0.001265      0.002719     -0.003178
      2.72051      0.03467      2.68158        -0.001265      0.002719      0.003178
      7.97497      0.03467      2.84212        -0.001265      0.002719      0.003178
      2.72051      5.29495      2.68158        -0.001265      0.002719      0.003178
      7.97497      5.29495      2.84212        -0.001265      0.002719      0.003178
      2.61343      2.66481      0.07994         0.001265      0.002719     -0.003178
      7.86789      2.66481      0.24049         0.001265      0.002719     -0.003178
      2.61343      7.92510      0.07994         0.001265      0.002719     -0.003178
      7.86789      7.92510      0.24049         0.001265      0.002719     -0.003178
      0.25222      2.66481      7.80327        -0.001265      0.002719      0.003178
      5.50668      2.66481      7.96381        -0.001265      0.002719      0.003178
      0.25222      7.92510      7.80327        -0.001265      0.002719      0.003178
      5.50668      7.92510      7.96381        -0.001265      0.002719      0.003178
     10.50150      0.03338      0.32405         0.001653      0.003232     -0.005793
      5.24704      0.03338      0.16351         0.001653      0.003232     -0.005793
     10.50150      5.29367      0.32405         0.001653      0.003232     -0.005793
      5.24704      5.29367      0.16351         0.001653      0.003232     -0.005793
      2.87307      0.03338      7.88025        -0.001653      0.003232      0.005793
      8.12753      0.03338      8.04079        -0.001653      0.003232      0.005793
      2.87307      5.29367      7.88025        -0.001653      0.003232      0.005793
      8.12753      5.29367      8.04079        -0.001653      0.003232      0.005793
      2.77875      2.66353      5.28520         0.001653      0.003232     -0.005793
      8.03321      2.66353      5.44574         0.001653      0.003232     -0.005793
      2.77875      7.92382      5.28520         0.001653      0.003232     -0.005793
      8.03321      7.92382      5.44574         0.001653      0.003232     -0.005793
      0.08690      2.66353      2.59802        -0.001653      0.003232      0.005793
      5.34136      2.66353      2.75856        -0.001653      0.003232      0.005793
      0.08690      7.92382      2.59802        -0.001653      0.003232      0.005793
      5.34136      7.92382      2.75856        -0.001653      0.003232      0.005793
 -----------------------------------------------------------------------------------
    total drift:                               -0.000003      0.015253     -0.000241


--------------------------------------------------------------------------------------------------------



  FREE ENERGIE OF THE ION-ELECTRON SYSTEM (eV)
  ---------------------------------------------------
  free  energy   TOTEN  =      -327.72423601 eV

  energy  without entropy=     -327.72423601  energy(sigma->0) =     -327.72423601
 


--------------------------------------------------------------------------------------------------------


    POTLOK:  cpu time    0.1306: real time    0.1313


--------------------------------------------------------------------------------------------------------


 writing wavefunctions
     LOOP+:  cpu time 3379.3483: real time 3402.9216
    4ORBIT:  cpu time    0.0000: real time    0.0000
 


 total charge     
 
# of ion       s       p       d       tot
------------------------------------------
    1        1.314   2.409   0.000   3.723
    2        1.314   2.409   0.000   3.723
    3        1.314   2.409   0.000   3.723
    4        1.314   2.409   0.000   3.723
    5        1.314   2.409   0.000   3.723
    6        1.314   2.409   0.000   3.723
    7        1.314   2.409   0.000   3.723
    8        1.314   2.409   0.000   3.723
    9        1.315   2.406   0.000   3.721
   10        1.315   2.406   0.000   3.721
   11        1.315   2.406   0.000   3.721
   12        1.315   2.406   0.000   3.721
   13        1.313   2.412   0.000   3.725
   14        1.313   2.412   0.000   3.725
   15        1.313   2.412   0.000   3.725
   16        1.313   2.412   0.000   3.725
   17        1.314   2.409   0.000   3.723
   18        1.314   2.409   0.000   3.723
   19        1.314   2.409   0.000   3.723
   20        1.314   2.409   0.000   3.723
   21        1.314   2.409   0.000   3.723
   22        1.314   2.409   0.000   3.723
   23        1.314   2.409   0.000   3.723
   24        1.314   2.409   0.000   3.723
   25        1.315   2.406   0.000   3.721
   26        1.315   2.406   0.000   3.721
   27        1.315   2.406   0.000   3.721
   28        1.315   2.406   0.000   3.721
   29        1.313   2.412   0.000   3.725
   30        1.313   2.412   0.000   3.725
   31        1.313   2.412   0.000   3.725
   32        1.313   2.412   0.000   3.725
   33        0.259   6.202   8.917  15.377
   34        0.259   6.202   8.917  15.377
   35        0.259   6.202   8.917  15.377
   36        0.259   6.202   8.917  15.377
   37        0.259   6.202   8.917  15.377
   38        0.259   6.202   8.917  15.377
   39        0.259   6.202   8.917  15.377
   40        0.259   6.202   8.917  15.377
   41        0.259   6.202   8.917  15.377
   42        0.259   6.202   8.917  15.377
   43        0.259   6.202   8.917  15.377
   44        0.259   6.202   8.917  15.377
   45        0.259   6.202   8.917  15.377
   46        0.259   6.202   8.917  15.377
   47        0.259   6.202   8.917  15.377
   48        0.259   6.202   8.917  15.377
   49        0.350   6.350   5.821  12.521
   50        0.350   6.350   5.821  12.521
   51        0.350   6.350   5.821  12.521
   52        0.350   6.350   5.821  12.521
   53        0.350   6.350   5.821  12.521
   54        0.350   6.350   5.821  12.521
   55        0.350   6.350   5.821  12.521
   56        0.350   6.350   5.821  12.521
   57        0.350   6.350   5.821  12.521
   58        0.350   6.350   5.821  12.521
   59        0.350   6.350   5.821  12.521
   60        0.350   6.350   5.821  12.521
   61        0.350   6.350   5.821  12.521
   62        0.350   6.350   5.821  12.521
   63        0.350   6.350   5.821  12.521
   64        0.350   6.350   5.821  12.521
--------------------------------------------------
tot         51.782 277.912 235.805 565.500
 


 magnetization (x)
 
# of ion       s       p       d       tot
------------------------------------------
    1       -0.000  -0.015   0.000  -0.015
    2       -0.000  -0.015   0.000  -0.015
    3       -0.000  -0.015   0.000  -0.015
    4       -0.000  -0.015   0.000  -0.015
    5        0.000   0.015   0.000   0.015
    6        0.000   0.015   0.000   0.015
    7        0.000   0.015   0.000   0.015
    8        0.000   0.015   0.000   0.015
    9       -0.000   0.000   0.000   0.000
   10        0.000  -0.000   0.000  -0.000
   11       -0.000   0.000   0.000   0.000
   12        0.000  -0.000   0.000  -0.000
   13       -0.000  -0.000   0.000  -0.000
   14       -0.000   0.000   0.000   0.000
   15        0.000  -0.000   0.000  -0.000
   16       -0.000   0.000   0.000   0.000
   17        0.000   0.015   0.000   0.015
   18        0.000   0.015   0.000   0.015
   19        0.000   0.015   0.000   0.015
   20        0.000   0.015   0.000   0.015
   21       -0.000  -0.015   0.000  -0.015
   22       -0.000  -0.015   0.000  -0.015
   23       -0.000  -0.015   0.000  -0.015
   24       -0.000  -0.015   0.000  -0.015
   25        0.000   0.000   0.000   0.000
   26        0.000   0.000   0.000   0.000
   27       -0.000   0.000   0.000   0.000
   28        0.000  -0.000   0.000  -0.000
   29        0.000  -0.000   0.000  -0.000
   30        0.000   0.000   0.000   0.000
   31        0.000  -0.000   0.000  -0.000
   32       -0.000   0.000   0.000   0.000
   33        0.000   0.001  -0.002  -0.001
   34        0.000   0.001  -0.002  -0.001
   35        0.000   0.001  -0.002  -0.001
   36        0.000   0.001  -0.002  -0.001
   37       -0.000  -0.001   0.002   0.001
   38       -0.000  -0.001   0.002   0.001
   39       -0.000  -0.001   0.002   0.001
   40       -0.000  -0.001   0.002   0.001
   41        0.000   0.001  -0.002  -0.001
   42        0.000   0.001  -0.002  -0.001
   43        0.000   0.001  -0.002  -0.001
   44        0.000   0.001  -0.002  -0.001
   45       -0.000  -0.001   0.002   0.001
   46       -0.000  -0.001   0.002   0.001
   47       -0.000  -0.001   0.002   0.001
   48       -0.000  -0.001   0.002   0.001
   49        0.020   0.054   3.669   3.742
   50        0.020   0.054   3.669   3.742
   51        0.020   0.054   3.669   3.742
   52        0.020   0.054   3.669   3.742
   53       -0.020  -0.054  -3.669  -3.742
   54       -0.020  -0.054  -3.669  -3.742
   55       -0.020  -0.054  -3.669  -3.742
   56       -0.020  -0.054  -3.669  -3.742
   57        0.020   0.054   3.669   3.742
   58        0.020   0.054   3.669   3.742
   59        0.020   0.054   3.669   3.742
   60        0.020   0.054   3.669   3.742
   61       -0.020  -0.054  -3.669  -3.742
   62       -0.020  -0.054  -3.669  -3.742
   63       -0.020  -0.054  -3.669  -3.742
   64       -0.020  -0.054  -3.669  -3.742
--------------------------------------------------
tot         -0.000   0.000   0.000   0.000
 
 BZINTS: Fermi energy:  4.928146;688.000000 electrons
         Band energy:***********;  BLOECHL correction:  0.000000

 total amount of memory used by VASP MPI-rank0   348353. kBytes
=======================================================================

   base      :      30000. kBytes
   nonl-proj :     216760. kBytes
   fftplans  :       4588. kBytes
   grid      :      69719. kBytes
   one-center:       1990. kBytes
   wavefun   :      25296. kBytes
 
  
  
 General timing and accounting informations for this job:
 ========================================================
  
                  Total CPU time used (sec):     3438.316
                            User time (sec):     3426.970
                          System time (sec):       11.346
                         Elapsed time (sec):     3463.316
  
                   Maximum memory used (kb):      706340.
                   Average memory used (kb):           0.
  
                          Minor page faults:       640390
                          Major page faults:         5725
                 Voluntary context switches:         6998
