       N       E                     dE             d eps       ncg     rms          rms(c)
DAV:   1     0.601494804554E+04    0.60149E+04   -0.51827E+05 16384   0.197E+03
DAV:   2    -0.118962227365E+03   -0.61339E+04   -0.60277E+04 18688   0.447E+02
DAV:   3    -0.360080643193E+03   -0.24112E+03   -0.24045E+03 21504   0.963E+01
DAV:   4    -0.363488709469E+03   -0.34081E+01   -0.34079E+01 20992   0.116E+01
DAV:   5    -0.363595045488E+03   -0.10634E+00   -0.10634E+00 20480   0.199E+00    0.471E+01
DAV:   6    -0.336454443890E+03    0.27141E+02   -0.39582E+01 25600   0.221E+01    0.272E+01
DAV:   7    -0.329256171579E+03    0.71983E+01   -0.18797E+01 20480   0.141E+01    0.197E+01
DAV:   8    -0.327476395722E+03    0.17798E+01   -0.78231E+00 26624   0.608E+00    0.801E+00
DAV:   9    -0.327372793980E+03    0.10360E+00   -0.51644E+00 23296   0.548E+00    0.710E+00
DAV:  10    -0.327278374082E+03    0.94420E-01   -0.26995E+00 20992   0.505E+00    0.364E+00
DAV:  11    -0.327280722257E+03   -0.23482E-02   -0.78407E-01 19968   0.238E+00    0.158E+00
DAV:  12    -0.327294725682E+03   -0.14003E-01   -0.12905E-01 27648   0.841E-01    0.594E-01
DAV:  13    -0.327300054511E+03   -0.53288E-02   -0.13796E-02 19968   0.172E-01    0.288E-01
DAV:  14    -0.327301990719E+03   -0.19362E-02   -0.51193E-03 23040   0.866E-02    0.155E-01
DAV:  15    -0.327302910141E+03   -0.91942E-03   -0.21706E-03 18176   0.541E-02    0.856E-02
DAV:  16    -0.327303261264E+03   -0.35112E-03   -0.92773E-04 22528   0.352E-02    0.556E-02
DAV:  17    -0.327303428761E+03   -0.16750E-03   -0.69771E-04 18432   0.256E-02    0.294E-02
DAV:  18    -0.327303473859E+03   -0.45098E-04   -0.28119E-04 21504   0.168E-02    0.135E-02
DAV:  19    -0.327303478218E+03   -0.43588E-05   -0.18342E-05 17920   0.634E-03    0.934E-03
DAV:  20    -0.327303480034E+03   -0.18162E-05   -0.92461E-06 24576   0.351E-03    0.433E-03
DAV:  21    -0.327303480613E+03   -0.57842E-06   -0.24353E-06 19968   0.184E-03    0.214E-03
DAV:  22    -0.327303480799E+03   -0.18644E-06   -0.29005E-07 23552   0.648E-04    0.153E-03
DAV:  23    -0.327303480888E+03   -0.88316E-07   -0.16355E-07 20480   0.434E-04    0.672E-04
DAV:  24    -0.327303480920E+03   -0.32174E-07   -0.11535E-07 21248   0.350E-04    0.392E-04
DAV:  25    -0.327303480920E+03    0.13097E-09   -0.19655E-08 12800   0.151E-04
   1 F= -.32730348E+03 E0= -.32730348E+03  d E =0.000000E+00  mag=    -0.0000
