 vasp.5.4.4.18Apr17-6-g9f103f2a35 (build Oct 30 2023 17:30:16) complex          
  
 executed on             LinuxIFC date 2024.06.30  05:27:49
 running on  256 total cores
 distrk:  each k-point on  256 cores,    1 groups
 distr:  one band on NCORES_PER_BAND=   1 cores,  256 groups


--------------------------------------------------------------------------------------------------------


 INCAR:
 POTCAR:    PAW_PBE S 06Sep2000                   
 POTCAR:     PAW_PBE Cu_pv 06Sep2000              
 POTCAR:     PAW_PBE Fe_pv 02Aug2007              

 ----------------------------------------------------------------------------- 
|                                                                             |
|           W    W    AA    RRRRR   N    N  II  N    N   GGGG   !!!           |
|           W    W   A  A   R    R  NN   N  II  NN   N  G    G  !!!           |
|           W    W  A    A  R    R  N N  N  II  N N  N  G       !!!           |
|           W WW W  AAAAAA  RRRRR   N  N N  II  N  N N  G  GGG   !            |
|           WW  WW  A    A  R   R   N   NN  II  N   NN  G    G                |
|           W    W  A    A  R    R  N    N  II  N    N   GGGG   !!!           |
|                                                                             |
|      For optimal performance we recommend to set                            |
|        NCORE= 4 - approx SQRT( number of cores)                             |
|      NCORE specifies how many cores store one orbital (NPAR=cpu/NCORE).     |
|      This setting can  greatly improve the performance of VASP for DFT.     |
|      The default,   NCORE=1            might be grossly inefficient         |
|      on modern multi-core architectures or massively parallel machines.     |
|      Do your own testing !!!!                                               |
|      Unfortunately you need to use the default for GW and RPA calculations. |
|      (for HF NCORE is supported but not extensively tested yet)             |
|                                                                             |
 ----------------------------------------------------------------------------- 

 POTCAR:    PAW_PBE S 06Sep2000                   
   SHA256 =  0fc7481fb0695f01bdc6462160264c5c84044ae9ec85a907d398b887a2bc3132 S/
   COPYR  = (c) Copyright 06Sep2000 Georg Kresse                                
   COPYR  = This file is part of the software VASP. Any use, copying, and all ot
   COPYR  = If you do not have a valid VASP license, you may not use, copy or di
   VRHFIN =S : s2p4                                                             
   LEXCH  = PE                                                                  
   EATOM  =   276.8230 eV,   20.3459 Ry                                         
                                                                                
   TITEL  = PAW_PBE S 06Sep2000                                                 
   LULTRA =        F    use ultrasoft PP ?                                      
   IUNSCR =        1    unscreen: 0-lin 1-nonlin 2-no                           
   RPACOR =    1.500    partial core radius                                     
   POMASS =   32.066; ZVAL   =    6.000    mass and valenz                      
   RCORE  =    1.900    outmost cutoff radius                                   
   RWIGS  =    2.200; RWIGS  =    1.164    wigner-seitz radius (au A)           
   ENMAX  =  258.689; ENMIN  =  194.016 eV                                      
   ICORE  =        2    local potential                                         
   LCOR   =        T    correct aug charges                                     
   LPAW   =        T    paw PP                                                  
   EAUG   =  335.092                                                            
   DEXC   =    0.000                                                            
   RMAX   =    1.942    core radius for proj-oper                               
   RAUG   =    1.300    factor for augmentation sphere                          
   RDEP   =    1.954    radius for radial grids                                 
   RDEPT  =    1.744    core radius for aug-charge                              
                                                                                
   Atomic configuration                                                         
    6 entries                                                                   
     n  l   j            E        occ.                                          
     1  0  0.50     -2405.8406   2.0000                                         
     2  0  0.50      -211.7007   2.0000                                         
     2  1  1.50      -156.4958   6.0000                                         
     3  0  0.50       -17.2562   2.0000                                         
     3  1  0.50        -7.0085   4.0000                                         
     3  2  1.50        -6.8029   0.0000                                         
   Description                                                                  
     l       E           TYP  RCUT    TYP  RCUT                                 
     0    -17.2561641     23  1.900                                             
     0    -15.8743224     23  1.900                                             
     1     -7.0085400     23  1.900                                             
     1     -2.7779785     23  1.900                                             
     2     -6.8029130     23  1.900                                             
  local pseudopotential read in
  partial core-charges read in
  partial kinetic energy density read in
  atomic valenz-charges read in
  non local Contribution for L=           0  read in
    real space projection operators read in
  non local Contribution for L=           0  read in
    real space projection operators read in
  non local Contribution for L=           1  read in
    real space projection operators read in
  non local Contribution for L=           1  read in
    real space projection operators read in
    PAW grid and wavefunctions read in
 
   number of l-projection  operators is LMAX  =           4
   number of lm-projection operators is LMMAX =           8
 
 POTCAR:     PAW_PBE Cu_pv 06Sep2000              
   SHA256 =  cb7b504e2ea725fe1f25c85a9ac77d4012ce94cd394135b722c4e25ec297f1cb Cu
   COPYR  = (c) Copyright 06Sep2000 Georg Kresse                                
   COPYR  = This file is part of the software VASP. Any use, copying, and all ot
   COPYR  = If you do not have a valid VASP license, you may not use, copy or di
   VRHFIN =Cu: d10 p1                                                           
   LEXCH  = PE                                                                  
   EATOM  =  4120.1201 eV,  302.8203 Ry                                         
                                                                                
   TITEL  = PAW_PBE Cu_pv 06Sep2000                                             
   LULTRA =        F    use ultrasoft PP ?                                      
   IUNSCR =        1    unscreen: 0-lin 1-nonlin 2-no                           
   RPACOR =    1.500    partial core radius                                     
   POMASS =   63.546; ZVAL   =   17.000    mass and valenz                      
   RCORE  =    2.000    outmost cutoff radius                                   
   RWIGS  =    2.000; RWIGS  =    1.058    wigner-seitz radius (au A)           
   ENMAX  =  368.648; ENMIN  =  276.486 eV                                      
   RCLOC  =    1.304    cutoff for local pot                                    
   LCOR   =        T    correct aug charges                                     
   LPAW   =        T    paw PP                                                  
   EAUG   =  758.233                                                            
   DEXC   =    0.000                                                            
   RMAX   =    2.046    core radius for proj-oper                               
   RAUG   =    1.300    factor for augmentation sphere                          
   RDEP   =    2.025    radius for radial grids                                 
   RDEPT  =    1.558    core radius for aug-charge                              
                                                                                
   Atomic configuration                                                         
    8 entries                                                                   
     n  l   j            E        occ.                                          
     1  0  0.50     -8850.2467   2.0000                                         
     2  0  0.50     -1062.3498   2.0000                                         
     2  1  1.50      -916.8226   6.0000                                         
     3  0  0.50      -114.6929   2.0000                                         
     3  1  1.50       -72.1325   6.0000                                         
     3  2  2.50        -5.0394  10.0000                                         
     4  0  0.50        -4.6097   1.0000                                         
     4  3  2.50        -1.3606   0.0000                                         
   Description                                                                  
     l       E           TYP  RCUT    TYP  RCUT                                 
     1    -72.1324777     23  1.700                                             
     1     -1.3605826     23  1.700                                             
     2     -5.0393776     23  2.000                                             
     2     -6.3999602     23  2.000                                             
     0     -4.6097062     23  1.800                                             
     0     14.1620818     23  1.800                                             
  local pseudopotential read in
  partial core-charges read in
  partial kinetic energy density read in
  atomic valenz-charges read in
  non local Contribution for L=           1  read in
    real space projection operators read in
  non local Contribution for L=           1  read in
    real space projection operators read in
  non local Contribution for L=           2  read in
    real space projection operators read in
  non local Contribution for L=           2  read in
    real space projection operators read in
  non local Contribution for L=           0  read in
    real space projection operators read in
  non local Contribution for L=           0  read in
    real space projection operators read in
    PAW grid and wavefunctions read in
 
   number of l-projection  operators is LMAX  =           6
   number of lm-projection operators is LMMAX =          18
 
 POTCAR:     PAW_PBE Fe_pv 02Aug2007              
   SHA256 =  5d22e414b1f82158bf2c7ecb8b97b28fd0923e48cadc1c3bf74d524558f5dd32 Fe
   COPYR  = (c) Copyright 02Aug2007 Georg Kresse                                
   COPYR  = This file is part of the software VASP. Any use, copying, and all ot
   COPYR  = If you do not have a valid VASP license, you may not use, copy or di
   VRHFIN =Fe:  3pd7s1                                                          
   LEXCH  = PE                                                                  
   EATOM  =  2457.4239 eV,  180.6156 Ry                                         
                                                                                
   TITEL  = PAW_PBE Fe_pv 02Aug2007                                             
   LULTRA =        F    use ultrasoft PP ?                                      
   IUNSCR =        1    unscreen: 0-lin 1-nonlin 2-no                           
   RPACOR =    1.750    partial core radius                                     
   POMASS =   55.847; ZVAL   =   14.000    mass and valenz                      
   RCORE  =    2.200    outmost cutoff radius                                   
   RWIGS  =    2.200; RWIGS  =    1.164    wigner-seitz radius (au A)           
   ENMAX  =  293.238; ENMIN  =  219.928 eV                                      
   ICORE  =        3    local potential                                         
   LCOR   =        T    correct aug charges                                     
   LPAW   =        T    paw PP                                                  
   EAUG   =  578.342                                                            
   DEXC   =    0.000                                                            
   RMAX   =    2.249    core radius for proj-oper                               
   RAUG   =    1.300    factor for augmentation sphere                          
   RDEP   =    2.296    radius for radial grids                                 
   RDEPT  =    1.766    core radius for aug-charge                              
                                                                                
   Atomic configuration                                                         
    8 entries                                                                   
     n  l   j            E        occ.                                          
     1  0  0.50     -6993.8440   2.0000                                         
     2  0  0.50      -814.6047   2.0000                                         
     2  1  1.50      -693.3689   6.0000                                         
     3  0  0.50       -89.4732   2.0000                                         
     3  1  1.50       -55.6373   6.0000                                         
     3  2  2.50        -3.8151   7.0000                                         
     4  0  0.50        -4.2551   1.0000                                         
     4  3  2.50        -1.3606   0.0000                                         
   Description                                                                  
     l       E           TYP  RCUT    TYP  RCUT                                 
     1    -55.6372668     23  2.000                                             
     1     -5.4423304     23  2.000                                             
     2     -3.8151096     23  2.200                                             
     2     -5.1756922     23  2.200                                             
     0     -4.2550951     23  2.200                                             
     0     27.2116520     23  2.200                                             
     3     -1.3605826     23  2.200                                             
  local pseudopotential read in
  partial core-charges read in
  partial kinetic energy density read in
  atomic valenz-charges read in
  non local Contribution for L=           1  read in
    real space projection operators read in
  non local Contribution for L=           1  read in
    real space projection operators read in
  non local Contribution for L=           2  read in
    real space projection operators read in
  non local Contribution for L=           2  read in
    real space projection operators read in
  non local Contribution for L=           0  read in
    real space projection operators read in
  non local Contribution for L=           0  read in
    real space projection operators read in
    PAW grid and wavefunctions read in
 
   number of l-projection  operators is LMAX  =           6
   number of lm-projection operators is LMMAX =          18
 

 ----------------------------------------------------------------------------- 
|                                                                             |
|  ADVICE TO THIS USER RUNNING 'VASP/VAMP'   (HEAR YOUR MASTER'S VOICE ...):  |
|                                                                             |
|      You have a (more or less) 'large supercell' and for larger cells       |
|      it might be more efficient to use real space projection opertators     |
|      So try LREAL= Auto  in the INCAR   file.                               |
|      Mind:          For very  accurate calculation you might also keep the  |
|      reciprocal projection scheme          (i.e. LREAL=.FALSE.)             |
|                                                                             |
 ----------------------------------------------------------------------------- 


 ----------------------------------------------------------------------------- 
|                                                                             |
|  ADVICE TO THIS USER RUNNING 'VASP/VAMP'   (HEAR YOUR MASTER'S VOICE ...):  |
|                                                                             |
|      You enforced a specific xc-type in the INCAR file,                     |
|      a different type was found on the POTCAR file                          |
|          I HOPE YOU KNOW, WHAT YOU ARE  DOING                               |
|                                                                             |
 ----------------------------------------------------------------------------- 

  PAW_PBE S 06Sep2000                   :
 energy of atom  1       EATOM= -276.8230
 kinetic energy error for atom=    0.0007 (will be added to EATOM!!)
   PAW_PBE Cu_pv 06Sep2000              :
 energy of atom  2       EATOM=-4120.1201
 kinetic energy error for atom=    0.0094 (will be added to EATOM!!)
   PAW_PBE Fe_pv 02Aug2007              :
 energy of atom  3       EATOM=-2457.4239
 kinetic energy error for atom=    0.0025 (will be added to EATOM!!)
 
 
 POSCAR: Fe16 Cu16 S32                           
  positions in direct lattice
  No initial velocities read in
 exchange correlation table for  LEXCH =       14
   RHO(1)=    0.500       N(1)  =     2000
   RHO(2)=  100.500       N(2)  =     4000
 


--------------------------------------------------------------------------------------------------------


 ion  position               nearest neighbor table
   1  0.127  0.119  0.126-  41 2.25  61 2.26  37 2.27  49 2.29
   2  0.627  0.119  0.126-  42 2.25  62 2.26  38 2.27  50 2.29
   3  0.127  0.619  0.126-  43 2.25  63 2.26  39 2.27  51 2.29
   4  0.627  0.619  0.126-  44 2.25  64 2.26  40 2.27  52 2.29
   5  0.373  0.369  0.124-  39 2.25  52 2.26  41 2.27  62 2.29
   6  0.873  0.369  0.124-  40 2.25  51 2.26  42 2.27  61 2.29
   7  0.373  0.869  0.124-  37 2.25  50 2.26  43 2.27  64 2.29
   8  0.873  0.869  0.124-  38 2.25  49 2.26  44 2.27  63 2.29
   9  0.125  0.371  0.875-  41 2.27  45 2.27  51 2.27  55 2.27
  10  0.625  0.371  0.875-  42 2.27  46 2.27  52 2.27  56 2.27
  11  0.125  0.871  0.875-  43 2.27  47 2.27  49 2.27  53 2.27
  12  0.625  0.871  0.875-  44 2.27  48 2.27  50 2.27  54 2.27
  13  0.375  0.122  0.875-  41 2.26  46 2.26  50 2.29  53 2.29
  14  0.875  0.122  0.875-  42 2.26  45 2.26  49 2.29  54 2.29
  15  0.375  0.622  0.875-  43 2.26  48 2.26  52 2.29  55 2.29
  16  0.875  0.622  0.875-  44 2.26  47 2.26  51 2.29  56 2.29
  17  0.123  0.119  0.624-  45 2.25  57 2.26  33 2.27  53 2.29
  18  0.623  0.119  0.624-  46 2.25  58 2.26  34 2.27  54 2.29
  19  0.123  0.619  0.624-  47 2.25  59 2.26  35 2.27  55 2.29
  20  0.623  0.619  0.624-  48 2.25  60 2.26  36 2.27  56 2.29
  21  0.377  0.369  0.626-  36 2.25  55 2.26  46 2.27  57 2.29
  22  0.877  0.369  0.626-  35 2.25  56 2.26  45 2.27  58 2.29
  23  0.377  0.869  0.626-  34 2.25  53 2.26  48 2.27  59 2.29
  24  0.877  0.869  0.626-  33 2.25  54 2.26  47 2.27  60 2.29
  25  0.375  0.121  0.375-  34 2.27  37 2.27  57 2.27  62 2.27
  26  0.875  0.121  0.375-  33 2.27  38 2.27  58 2.27  61 2.27
  27  0.375  0.621  0.375-  36 2.27  39 2.27  59 2.27  64 2.27
  28  0.875  0.621  0.375-  35 2.27  40 2.27  60 2.27  63 2.27
  29  0.125  0.372  0.375-  35 2.26  39 2.26  57 2.29  61 2.29
  30  0.625  0.372  0.375-  36 2.26  40 2.26  58 2.29  62 2.29
  31  0.125  0.872  0.375-  33 2.26  37 2.26  59 2.29  63 2.29
  32  0.625  0.872  0.375-  34 2.26  38 2.26  60 2.29  64 2.29
  33  0.998  0.004  0.500-  24 2.25  31 2.26  26 2.27  17 2.27
  34  0.498  0.004  0.500-  23 2.25  32 2.26  25 2.27  18 2.27
  35  0.998  0.504  0.500-  22 2.25  29 2.26  28 2.27  19 2.27
  36  0.498  0.504  0.500-  21 2.25  30 2.26  27 2.27  20 2.27
  37  0.252  0.004  0.250-   7 2.25  31 2.26  25 2.27   1 2.27
  38  0.752  0.004  0.250-   8 2.25  32 2.26  26 2.27   2 2.27
  39  0.252  0.504  0.250-   5 2.25  29 2.26  27 2.27   3 2.27
  40  0.752  0.504  0.250-   6 2.25  30 2.26  28 2.27   4 2.27
  41  0.248  0.254  0.000-   1 2.25  13 2.26   9 2.27   5 2.27
  42  0.748  0.254  0.000-   2 2.25  14 2.26  10 2.27   6 2.27
  43  0.248  0.754  0.000-   3 2.25  15 2.26  11 2.27   7 2.27
  44  0.748  0.754  0.000-   4 2.25  16 2.26  12 2.27   8 2.27
  45  0.002  0.254  0.750-  17 2.25  14 2.26   9 2.27  22 2.27
  46  0.502  0.254  0.750-  18 2.25  13 2.26  10 2.27  21 2.27
  47  0.002  0.754  0.750-  19 2.25  16 2.26  11 2.27  24 2.27
  48  0.502  0.754  0.750-  20 2.25  15 2.26  12 2.27  23 2.27
  49  0.998  0.004  0.001-   8 2.26  11 2.27  14 2.29   1 2.29
  50  0.498  0.004  0.001-   7 2.26  12 2.27  13 2.29   2 2.29
  51  0.998  0.504  0.001-   6 2.26   9 2.27  16 2.29   3 2.29
  52  0.498  0.504  0.001-   5 2.26  10 2.27  15 2.29   4 2.29
  53  0.252  0.004  0.749-  23 2.26  11 2.27  13 2.29  17 2.29
  54  0.752  0.004  0.749-  24 2.26  12 2.27  14 2.29  18 2.29
  55  0.252  0.504  0.749-  21 2.26   9 2.27  15 2.29  19 2.29
  56  0.752  0.504  0.749-  22 2.26  10 2.27  16 2.29  20 2.29
  57  0.248  0.254  0.501-  17 2.26  25 2.27  29 2.29  21 2.29
  58  0.748  0.254  0.501-  18 2.26  26 2.27  30 2.29  22 2.29
  59  0.248  0.754  0.501-  19 2.26  27 2.27  31 2.29  23 2.29
  60  0.748  0.754  0.501-  20 2.26  28 2.27  32 2.29  24 2.29
  61  0.002  0.254  0.249-   1 2.26  26 2.27  29 2.29   6 2.29
  62  0.502  0.254  0.249-   2 2.26  25 2.27  30 2.29   5 2.29
  63  0.002  0.754  0.249-   3 2.26  28 2.27  31 2.29   8 2.29
  64  0.502  0.754  0.249-   4 2.26  27 2.27  32 2.29   7 2.29
 
  LATTYP: Found a simple monoclinic cell.
 ALAT       =    15.4143259091
 B/A-ratio  =     0.6832841126
 C/A-ratio  =     1.5639889526
 COS(beta)  =    -0.9561329008
  
  Lattice vectors:
  
 A1 = ( -10.9496100000,   0.0000000000, -10.8493080000)
 A2 = (   0.0000000000, -10.5323640000,   0.0000000000)
 A3 = (  11.4032930000,   0.0000000000,  21.2403540000)


Analysis of symmetry for initial positions (statically):
=====================================================================
 Subroutine PRICEL returns following result:
 
  LATTYP: Found a base centered monoclinic cell.
 ALAT       =    11.2360865954
 B/A-ratio  =     0.4686847111
 C/A-ratio  =     0.9256733039
 COS(beta)  =    -0.8012854104
  
  Lattice vectors:
  
 A1 = (  -2.3971402500,  -2.6330910000,   5.0809575000)
 A2 = (  -2.3971402500,   2.6330910000,   5.0809575000)
 A3 = (  -0.4536830000,   0.0000000000, -10.3910460000)
 
   8 primitive cells build up your supercell.
 

 Routine SETGRP: Setting up the symmetry group for a 
 simple monoclinic supercell.


 Subroutine GETGRP returns: Found  2 space group operations
 (whereof  1 operations were pure point group operations)
 out of a pool of  4 trial point group operations.


The static configuration has the point symmetry C_1 .
 The point group associated with its full space group is C_2 .


Analysis of symmetry for dynamics (positions and initial velocities):
=====================================================================
 Subroutine PRICEL returns following result:
 
  LATTYP: Found a base centered monoclinic cell.
 ALAT       =    11.2360865954
 B/A-ratio  =     0.4686847111
 C/A-ratio  =     0.9256733039
 COS(beta)  =    -0.8012854104
  
  Lattice vectors:
  
 A1 = (  -2.3971402500,  -2.6330910000,   5.0809575000)
 A2 = (  -2.3971402500,   2.6330910000,   5.0809575000)
 A3 = (  -0.4536830000,   0.0000000000, -10.3910460000)
 
   8 primitive cells build up your supercell.
 

 Routine SETGRP: Setting up the symmetry group for a 
 simple monoclinic supercell.


 Subroutine GETGRP returns: Found  2 space group operations
 (whereof  1 operations were pure point group operations)
 out of a pool of  4 trial point group operations.


The dynamic configuration has the point symmetry C_1 .
 The point group associated with its full space group is C_2 .


Analysis of structural, dynamic, and magnetic symmetry:
=====================================================================
 Subroutine PRICEL returns following result:
 
  LATTYP: Found a base centered monoclinic cell.
 ALAT       =    11.2360865954
 B/A-ratio  =     0.4686847111
 C/A-ratio  =     0.9256733039
 COS(beta)  =    -0.8012854104
  
  Lattice vectors:
  
 A1 = (  -2.3971402500,  -2.6330910000,   5.0809575000)
 A2 = (  -2.3971402500,   2.6330910000,   5.0809575000)
 A3 = (  -0.4536830000,   0.0000000000, -10.3910460000)
 
   8 primitive cells build up your supercell.
 

 Routine SETGRP: Setting up the symmetry group for a 
 simple monoclinic supercell.


 Subroutine GETGRP returns: Found  2 space group operations
 (whereof  1 operations were pure point group operations)
 out of a pool of  4 trial point group operations.


The magnetic configuration has the point symmetry C_1 .
 The point group associated with its full space group is C_2 .


 Subroutine INISYM returns: Found  2 space group operations
 (whereof  1 operations are pure point group operations),
 and found     8 'primitive' translations

 
 
 KPOINTS: Automatic mesh                          

Automatic generation of k-mesh.
Space group operators:
 irot       det(A)        alpha          n_x          n_y          n_z        tau_x        tau_y        tau_z
    1     1.000000     0.000000     1.000000     0.000000     0.000000     0.000000     0.000000     0.000000
    2     1.000000   179.999999     0.000000     1.000000     0.000000    -0.250000    -0.000000    -0.250000
 
 Subroutine IBZKPT returns following result:
 ===========================================
 
 Found      8 irreducible k-points:
 
 Following reciprocal coordinates:
            Coordinates               Weight
  0.000000  0.000000  0.000000      1.000000
  0.500000  0.000000  0.000000      1.000000
  0.000000  0.500000  0.000000      1.000000
  0.500000  0.500000  0.000000      1.000000
 -0.000000  0.000000  0.500000      1.000000
  0.500000  0.000000  0.500000      1.000000
 -0.000000  0.500000  0.500000      1.000000
  0.500000  0.500000  0.500000      1.000000
 
 Following cartesian coordinates:
            Coordinates               Weight
  0.000000  0.000000  0.000000      1.000000
  0.047729  0.000000 -0.002084      1.000000
  0.000000  0.047473  0.000000      1.000000
  0.047729  0.047473 -0.002084      1.000000
 -0.002105  0.000000  0.048210      1.000000
  0.045624  0.000000  0.046126      1.000000
 -0.002105  0.047473  0.048210      1.000000
  0.045624  0.047473  0.046126      1.000000
 
 TETIRR: Found     24 inequivalent tetrahedra from       48
 
 Subroutine IBZKPT_HF returns following result:
 ==============================================
 
 Found      8 k-points in 1st BZ
 the following      8 k-points will be used (e.g. in the exchange kernel)
 Following reciprocal coordinates:   # in IRBZ
  0.000000  0.000000  0.000000    0.12500000   1 t-inv F
  0.500000  0.000000  0.000000    0.12500000   2 t-inv F
  0.000000  0.500000  0.000000    0.12500000   3 t-inv F
  0.500000  0.500000  0.000000    0.12500000   4 t-inv F
 -0.000000  0.000000  0.500000    0.12500000   5 t-inv F
  0.500000  0.000000  0.500000    0.12500000   6 t-inv F
 -0.000000  0.500000  0.500000    0.12500000   7 t-inv F
  0.500000  0.500000  0.500000    0.12500000   8 t-inv F


--------------------------------------------------------------------------------------------------------




 Dimension of arrays:
   k-points           NKPTS =      8   k-points in BZ     NKDIM =      8   number of bands    NBANDS=    512
   number of dos      NEDOS =    301   number of ions     NIONS =     64
   non local maximal  LDIM  =      6   non local SUM 2l+1 LMDIM =     18
   total plane-waves  NPLWV = 829440
   max r-space proj   IRMAX =      1   max aug-charges    IRDMAX=  22989
   dimension x,y,z NGX =    96 NGY =   96 NGZ =   90
   dimension x,y,z NGXF=   192 NGYF=  192 NGZF=  180
   support grid    NGXF=   192 NGYF=  192 NGZF=  180
   ions per type =              32  16  16
   NGX,Y,Z   is equivalent  to a cutoff of  15.19, 15.15, 14.39 a.u.
   NGXF,Y,Z  is equivalent  to a cutoff of  30.38, 30.31, 28.77 a.u.

 SYSTEM =  CuFeS2                                  
 POSCAR =  Fe16 Cu16 S32                           

 Startparameter for this run:
   NWRITE =      2    write-flag & timer
   PREC   = accura    normal or accurate (medium, high low for compatibility)
   ISTART =      0    job   : 0-new  1-cont  2-samecut
   ICHARG =      1    charge: 1-file 2-atom 10-const
   ISPIN  =      2    spin polarized calculation?
   LNONCOLLINEAR =      F non collinear calculations
   LSORBIT =      F    spin-orbit coupling
   INIWAV =      1    electr: 0-lowe 1-rand  2-diag
   LASPH  =      F    aspherical Exc in radial PAW
   METAGGA=      F    non-selfconsistent MetaGGA calc.

 Electronic Relaxation 1
   ENCUT  =  700.0 eV  51.45 Ry    7.17 a.u.  22.66 22.72 22.44*2*pi/ulx,y,z
   ENINI  =  700.0     initial cutoff
   ENAUG  =  758.2 eV  augmentation charge cutoff
   NELM   =    500;   NELMIN=  2; NELMDL=  0     # of ELM steps 
   EDIFF  = 0.1E-07   stopping-criterion for ELM
   LREAL  =      F    real-space projection
   NLSPLINE    = F    spline interpolate recip. space projectors
   LCOMPAT=      F    compatible to vasp.4.4
   GGA_COMPAT  = T    GGA compatible to vasp.4.4-vasp.4.6
   LMAXPAW     = -100 max onsite density
   LMAXMIX     =    4 max onsite mixed and CHGCAR
   VOSKOWN=      0    Vosko Wilk Nusair interpolation
   ROPT   =    0.00000   0.00000   0.00000
 Ionic relaxation
   EDIFFG = -.1E-04   stopping-criterion for IOM
   NSW    =      0    number of steps for IOM
   NBLOCK =      1;   KBLOCK =      1    inner block; outer block 
   IBRION =     -1    ionic relax: 0-MD 1-quasi-New 2-CG
   NFREE  =      0    steps in history (QN), initial steepest desc. (CG)
   ISIF   =      2    stress and relaxation
   IWAVPR =     10    prediction:  0-non 1-charg 2-wave 3-comb
   ISYM   =      2    0-nonsym 1-usesym 2-fastsym
   LCORR  =      T    Harris-Foulkes like correction to forces

   POTIM  = 0.5000    time-step for ionic-motion
   TEIN   =    0.0    initial temperature
   TEBEG  =    0.0;   TEEND  =   0.0 temperature during run
   SMASS  =  -3.00    Nose mass-parameter (am)
   estimated Nose-frequenzy (Omega)   =  0.10E-29 period in steps =****** mass=  -0.252E-26a.u.
   SCALEE = 1.0000    scale energy and forces
   NPACO  =    256;   APACO  = 16.0  distance and # of slots for P.C.
   PSTRESS=    0.0 pullay stress

  Mass of Ions in am
   POMASS =  32.07 63.55 55.85
  Ionic Valenz
   ZVAL   =   6.00 17.00 14.00
  Atomic Wigner-Seitz radii
   RWIGS  =  -1.00 -1.00 -1.00
  virtual crystal weights 
   VCA    =   1.00  1.00  1.00
   NELECT =     688.0000    total number of electrons
   NUPDOWN=      -1.0000    fix difference up-down

 DOS related values:
   EMIN   =  10.00;   EMAX   =-10.00  energy-range for DOS
   EFERMI =   0.00
   ISMEAR =    -5;   SIGMA  =   0.03  broadening in eV -4-tet -1-fermi 0-gaus

 Electronic relaxation 2 (details)
   IALGO  =     38    algorithm
   LDIAG  =      T    sub-space diagonalisation (order eigenvalues)
   LSUBROT=      F    optimize rotation matrix (better conditioning)
   TURBO    =      0    0=normal 1=particle mesh
   IRESTART =      0    0=no restart 2=restart with 2 vectors
   NREBOOT  =      0    no. of reboots
   NMIN     =      0    reboot dimension
   EREF     =   0.00    reference energy to select bands
   IMIX   =      4    mixing-type and parameters
     AMIX     =   0.40;   BMIX     =  1.00
     AMIX_MAG =   1.60;   BMIX_MAG =  1.00
     AMIN     =   0.10
     WC   =   100.;   INIMIX=   1;  MIXPRE=   1;  MAXMIX= -45

 Intra band minimization:
   WEIMIN = 0.0000     energy-eigenvalue tresh-hold
   EBREAK =  0.49E-11  absolut break condition
   DEPER  =   0.30     relativ break condition  

   TIME   =   0.40     timestep for ELM

  volume/ion in A,a.u.               =      17.91       120.89
  Fermi-wavevector in a.u.,A,eV,Ry     =   1.380846  2.609420 25.942711  1.906735
  Thomas-Fermi vector in A             =   2.505685
 
 Write flags
   LWAVE        =      T    write WAVECAR
   LDOWNSAMPLE  =      F    k-point downsampling of WAVECAR
   LCHARG       =      T    write CHGCAR
   LVTOT        =      F    write LOCPOT, total local potential
   LVHAR        =      F    write LOCPOT, Hartree potential only
   LELF         =      F    write electronic localiz. function (ELF)
   LORBIT       =     11    0 simple, 1 ext, 2 COOP (PROOUT), +10 PAW based schemes


 Dipole corrections
   LMONO  =      F    monopole corrections only (constant potential shift)
   LDIPOL =      F    correct potential (dipole corrections)
   IDIPOL =      0    1-x, 2-y, 3-z, 4-all directions 
   EPSILON=  1.0000000 bulk dielectric constant

 LDA+U is selected, type is set to LDAUTYPE =  2
   angular momentum for each species LDAUL =     2    2    2
   U (eV)           for each species LDAUU =   0.0  0.1  4.7
   J (eV)           for each species LDAUJ =   0.0  0.0  0.0
 Exchange correlation treatment:
   GGA     =    PS    GGA type
   LEXCH   =    14    internal setting for exchange type
   VOSKOWN=      0    Vosko Wilk Nusair interpolation
   LHFCALC =     F    Hartree Fock is set to
   LHFONE  =     F    Hartree Fock one center treatment
   AEXX    =    0.0000 exact exchange contribution

 Linear response parameters
   LEPSILON=     F    determine dielectric tensor
   LRPA    =     F    only Hartree local field effects (RPA)
   LNABLA  =     F    use nabla operator in PAW spheres
   LVEL    =     F    velocity operator in full k-point grid
   LINTERFAST=   F  fast interpolation
   KINTER  =     0    interpolate to denser k-point grid
   CSHIFT  =0.1000    complex shift for real part using Kramers Kronig
   OMEGAMAX=  -1.0    maximum frequency
   DEG_THRESHOLD= 0.2000000E-02 threshold for treating states as degnerate
   RTIME   =   -0.100 relaxation time in fs
  (WPLASMAI=    0.000 imaginary part of plasma frequency in eV, 0.658/RTIME)
   DFIELD  = 0.0000000 0.0000000 0.0000000 field for delta impulse in time
 
 Orbital magnetization related:
   ORBITALMAG=     F  switch on orbital magnetization
   LCHIMAG   =     F  perturbation theory with respect to B field
   DQ        =  0.001000  dq finite difference perturbation B field
   LLRAUG    =     F  two centre corrections for induced B field

 PEAD related settings:
   LPEAD      =     T    switch on PEAD
   IPEAD      =     4    finite difference order for dpsi/dk
   LCALCPOL   =     T    calculate macroscopic polarization
   LCALCEPS   =     F    calculate dielectric tensor
   EFIELD_PEAD=    0.0000    0.0000    0.0000
   SKIP_EDOTP =     F
   LRPA       =     F
   SKIP_SCF   =     F


--------------------------------------------------------------------------------------------------------


 Static calculation
 charge density and potential will be updated during run
 spin polarized calculation
 Variant of blocked Davidson
 Davidson routine will perform the subspace rotation
 perform sub-space diagonalisation
    after iterative eigenvector-optimisation
 modified Broyden-mixing scheme, WC =      100.0
 initial mixing is a Kerker type mixing with AMIX =  0.4000 and BMIX =      1.0000
 Hartree-type preconditioning will be used
 using additional bands          168
 reciprocal scheme for non local part
 use partial core corrections
 calculate Harris-corrections to forces 
   (improved forces if not selfconsistent)
 use gradient corrections 
 use of overlap-Matrix (Vanderbilt PP)
 Fermi weights with tetrahedron method with Bloechl corrections


--------------------------------------------------------------------------------------------------------


  energy-cutoff  :      700.00
  volume of cell :     1146.51
      direct lattice vectors                 reciprocal lattice vectors
    10.495927000  0.000000000  0.458262000     0.095457021  0.000000000 -0.004167745
     0.000000000 10.532364000  0.000000000     0.000000000  0.094945446  0.000000000
     0.453683000  0.000000000 10.391046000    -0.004209810  0.000000000  0.096420507

  length of vectors
    10.505926311 10.532364000 10.400945401     0.095547961  0.094945446  0.096512365


 
 k-points in units of 2pi/SCALE and weight: Automatic mesh                          
   0.00000000  0.00000000  0.00000000       0.125
   0.04772851  0.00000000 -0.00208387       0.125
   0.00000000  0.04747272  0.00000000       0.125
   0.04772851  0.04747272 -0.00208387       0.125
  -0.00210490  0.00000000  0.04821025       0.125
   0.04562361  0.00000000  0.04612638       0.125
  -0.00210490  0.04747272  0.04821025       0.125
   0.04562361  0.04747272  0.04612638       0.125
 
 k-points in reciprocal lattice and weights: Automatic mesh                          
   0.00000000  0.00000000  0.00000000       0.125
   0.50000000  0.00000000  0.00000000       0.125
   0.00000000  0.50000000  0.00000000       0.125
   0.50000000  0.50000000  0.00000000       0.125
  -0.00000000  0.00000000  0.50000000       0.125
   0.50000000  0.00000000  0.50000000       0.125
  -0.00000000  0.50000000  0.50000000       0.125
   0.50000000  0.50000000  0.50000000       0.125
 
 position of ions in fractional coordinates (direct lattice) 
   0.12654700  0.11923900  0.12581500
   0.62654700  0.11923900  0.12581500
   0.12654700  0.61923900  0.12581500
   0.62654700  0.61923900  0.12581500
   0.37345300  0.36923900  0.12418500
   0.87345300  0.36923900  0.12418500
   0.37345300  0.86923900  0.12418500
   0.87345300  0.86923900  0.12418500
   0.12500000  0.37109600  0.87500000
   0.62500000  0.37109600  0.87500000
   0.12500000  0.87109600  0.87500000
   0.62500000  0.87109600  0.87500000
   0.37500000  0.12248000  0.87500000
   0.87500000  0.12248000  0.87500000
   0.37500000  0.62248000  0.87500000
   0.87500000  0.62248000  0.87500000
   0.12345300  0.11923900  0.62418500
   0.62345300  0.11923900  0.62418500
   0.12345300  0.61923900  0.62418500
   0.62345300  0.61923900  0.62418500
   0.37654700  0.36923900  0.62581500
   0.87654700  0.36923900  0.62581500
   0.37654700  0.86923900  0.62581500
   0.87654700  0.86923900  0.62581500
   0.37500000  0.12109600  0.37500000
   0.87500000  0.12109600  0.37500000
   0.37500000  0.62109600  0.37500000
   0.87500000  0.62109600  0.37500000
   0.12500000  0.37248000  0.37500000
   0.62500000  0.37248000  0.37500000
   0.12500000  0.87248000  0.37500000
   0.62500000  0.87248000  0.37500000
   0.99755300  0.00448100  0.50005400
   0.49755300  0.00448100  0.50005400
   0.99755300  0.50448100  0.50005400
   0.49755300  0.50448100  0.50005400
   0.25244700  0.00448100  0.24994600
   0.75244700  0.00448100  0.24994600
   0.25244700  0.50448100  0.24994600
   0.75244700  0.50448100  0.24994600
   0.24755300  0.25448100  0.00005400
   0.74755300  0.25448100  0.00005400
   0.24755300  0.75448100  0.00005400
   0.74755300  0.75448100  0.00005400
   0.00244700  0.25448100  0.74994600
   0.50244700  0.25448100  0.74994600
   0.00244700  0.75448100  0.74994600
   0.50244700  0.75448100  0.74994600
   0.99843300  0.00449200  0.00111200
   0.49843300  0.00449200  0.00111200
   0.99843300  0.50449200  0.00111200
   0.49843300  0.50449200  0.00111200
   0.25156700  0.00449200  0.74888800
   0.75156700  0.00449200  0.74888800
   0.25156700  0.50449200  0.74888800
   0.75156700  0.50449200  0.74888800
   0.24843300  0.25449200  0.50111200
   0.74843300  0.25449200  0.50111200
   0.24843300  0.75449200  0.50111200
   0.74843300  0.75449200  0.50111200
   0.00156700  0.25449200  0.24888800
   0.50156700  0.25449200  0.24888800
   0.00156700  0.75449200  0.24888800
   0.50156700  0.75449200  0.24888800
 
 position of ions in cartesian coordinates  (Angst):
   1.38530820  1.25586855  1.36534113
   6.63327170  1.25586855  1.59447213
   1.38530820  6.52205055  1.36534113
   6.63327170  6.52205055  1.59447213
   3.97607605  3.88895955  1.46155137
   9.22403955  3.88895955  1.69068237
   3.97607605  9.15514155  1.46155137
   9.22403955  9.15514155  1.69068237
   1.70896350  3.90851815  9.14944800
   6.95692700  3.90851815  9.37857900
   1.70896350  9.17470015  9.14944800
   6.95692700  9.17470015  9.37857900
   4.33294525  1.29000394  9.26401350
   9.58090875  1.29000394  9.49314450
   4.33294525  6.55618594  9.26401350
   9.58090875  6.55618594  9.49314450
   1.57893580  1.25586855  6.54250887
   6.82689930  1.25586855  6.77163987
   1.57893580  6.52205055  6.54250887
   6.82689930  6.52205055  6.77163987
   4.23613145  3.88895955  6.67542963
   9.48409495  3.88895955  6.90456063
   4.23613145  9.15514155  6.67542963
   9.48409495  9.15514155  6.90456063
   4.10610375  1.27542715  4.06849050
   9.35406725  1.27542715  4.29762150
   4.10610375  6.54160915  4.06849050
   9.35406725  6.54160915  4.29762150
   1.48212200  3.92309494  3.95392500
   6.73008550  3.92309494  4.18305600
   1.48212200  9.18927694  3.95392500
   6.73008550  9.18927694  4.18305600
  10.69710947  0.04719552  5.65322475
   5.44914597  0.04719552  5.42409375
  10.69710947  5.31337752  5.65322475
   5.44914597  5.31337752  5.42409375
   2.76306153  0.04719552  2.71288725
   8.01102503  0.04719552  2.94201825
   2.76306153  5.31337752  2.71288725
   8.01102503  5.31337752  2.94201825
   2.59832272  2.68028652  0.11400525
   7.84628622  2.68028652  0.34313625
   2.59832272  7.94646852  0.11400525
   7.84628622  7.94646852  0.34313625
   0.36592128  2.68028652  7.79384475
   5.61388478  2.68028652  8.02297575
   0.36592128  7.94646852  7.79384475
   5.61388478  7.94646852  8.02297575
  10.47998438  0.04731138  0.46909875
   5.23202088  0.04731138  0.23996775
  10.47998438  5.31349338  0.46909875
   5.23202088  5.31349338  0.23996775
   2.98018662  0.04731138  7.89701325
   8.22815012  0.04731138  8.12614425
   2.98018662  5.31349338  7.89701325
   8.22815012  5.31349338  8.12614425
   2.83488063  2.68040238  5.32092525
   8.08284413  2.68040238  5.55005625
   2.83488063  7.94658438  5.32092525
   8.08284413  7.94658438  5.55005625
   0.12936337  2.68040238  2.58692475
   5.37732687  2.68040238  2.81605575
   0.12936337  7.94658438  2.58692475
   5.37732687  7.94658438  2.81605575
 


--------------------------------------------------------------------------------------------------------


 k-point  1 :   0.0000 0.0000 0.0000  plane waves:   48241
 k-point  2 :   0.5000 0.0000 0.0000  plane waves:   48206
 k-point  3 :   0.0000 0.5000 0.0000  plane waves:   48266
 k-point  4 :   0.5000 0.5000 0.0000  plane waves:   48244
 k-point  5 :  -0.0000 0.0000 0.5000  plane waves:   48262
 k-point  6 :   0.5000 0.0000 0.5000  plane waves:   48232
 k-point  7 :  -0.0000 0.5000 0.5000  plane waves:   48148
 k-point  8 :   0.5000 0.5000 0.5000  plane waves:   48204

 maximum and minimum number of plane-waves per node :     48266    48148

 maximum number of plane-waves:     48266
 maximum index in each direction: 
   IXMAX=   22   IYMAX=   22   IZMAX=   22
   IXMIN=  -23   IYMIN=  -23   IZMIN=  -22


 serial   3D FFT for wavefunctions
 parallel 3D FFT for charge:
    minimum data exchange during FFTs selected (reduces bandwidth)


 total amount of memory used by VASP MPI-rank0   348353. kBytes
=======================================================================

   base      :      30000. kBytes
   nonl-proj :     216760. kBytes
   fftplans  :       4588. kBytes
   grid      :      69719. kBytes
   one-center:       1990. kBytes
   wavefun   :      25296. kBytes
 
     INWAV:  cpu time    0.0001: real time    0.0002
 Broyden mixing: mesh for mixing (old mesh)
   NGX = 45   NGY = 45   NGZ = 45
  (NGX  =192   NGY  =192   NGZ  =180)
  gives a total of  91125 points

 initial charge density was supplied:
 number of electron     688.0000140 magnetization      -0.0000000
 keeping initial charge density in first step


--------------------------------------------------------------------------------------------------------


 Maximum index for augmentation-charges          895 (set IRDMAX)


--------------------------------------------------------------------------------------------------------


 First call to EWALD:  gamma=   0.169
 Maximum number of real-space cells 3x 3x 3
 Maximum number of reciprocal cells 3x 3x 3

    FEWALD:  cpu time    0.0026: real time    0.0026


--------------------------------------- Iteration      1(   1)  ---------------------------------------


    POTLOK:  cpu time    0.3689: real time    0.4145
    SETDIJ:  cpu time    0.0147: real time    0.0148
     EDDAV:  cpu time   83.3590: real time   84.1641
 BZINTS: Fermi energy: 14.700075;688.000000 electrons
         Band energy:***********;  BLOECHL correction: -0.013633
       DOS:  cpu time    0.0397: real time    0.0399
    --------------------------------------------
      LOOP:  cpu time   83.7824: real time   84.6334

 eigenvalue-minimisations  : 16384
 total energy-change (2. order) : 0.6014948E+04  (-0.5182691E+05)
 number of electron     688.0000140 magnetization      -0.0000000
 augmentation part      688.0000140 magnetization      -0.0000000

 Free energy of the ion-electron system (eV)
  ---------------------------------------------------
  alpha Z        PSCENC =      2364.70179543
  Ewald energy   TEWEN  =    -62572.58759588
  -Hartree energ DENC   =    -42643.94510048
  -exchange      EXHF   =         0.00000000
  -V(xc)+E(xc)   XCENC  =      3278.85112554
  PAW double counting   =    112006.03736751  -115694.97744343
  entropy T*S    EENTRO =         0.00000000
  eigenvalues    EBANDS =     -4743.19721078
  atomic energy  EATOM  =    114020.06510763
  Solvation  Ediel_sol  =         0.00000000
  ---------------------------------------------------
  free energy    TOTEN  =      6014.94804554 eV

  energy without entropy =     6014.94804554  energy(sigma->0) =     6014.94804554


--------------------------------------------------------------------------------------------------------




--------------------------------------- Iteration      1(   2)  ---------------------------------------


     EDDAV:  cpu time  103.4249: real time  104.1999
 BZINTS: Fermi energy:  5.212164;688.000000 electrons
         Band energy:***********;  BLOECHL correction: -0.021187
       DOS:  cpu time    0.0326: real time    0.0327
    --------------------------------------------
      LOOP:  cpu time  103.4575: real time  104.2326

 eigenvalue-minimisations  : 18688
 total energy-change (2. order) :-0.6133910E+04  (-0.6027670E+04)
 number of electron     688.0000140 magnetization      -0.0000000
 augmentation part      688.0000140 magnetization      -0.0000000

 Free energy of the ion-electron system (eV)
  ---------------------------------------------------
  alpha Z        PSCENC =      2364.70179543
  Ewald energy   TEWEN  =    -62572.58759588
  -Hartree energ DENC   =    -42643.94510048
  -exchange      EXHF   =         0.00000000
  -V(xc)+E(xc)   XCENC  =      3278.85112554
  PAW double counting   =    112006.03736751  -115694.97744343
  entropy T*S    EENTRO =         0.00000000
  eigenvalues    EBANDS =    -10877.10748369
  atomic energy  EATOM  =    114020.06510763
  Solvation  Ediel_sol  =         0.00000000
  ---------------------------------------------------
  free energy    TOTEN  =      -118.96222736 eV

  energy without entropy =     -118.96222736  energy(sigma->0) =     -118.96222736


--------------------------------------------------------------------------------------------------------




--------------------------------------- Iteration      1(   3)  ---------------------------------------


     EDDAV:  cpu time  140.2146: real time  141.1973
 BZINTS: Fermi energy:  4.832201;688.000000 electrons
         Band energy:***********;  BLOECHL correction:  0.000000
       DOS:  cpu time    0.0071: real time    0.0071
    --------------------------------------------
      LOOP:  cpu time  140.2217: real time  141.2045

 eigenvalue-minimisations  : 21504
 total energy-change (2. order) :-0.2411184E+03  (-0.2404509E+03)
 number of electron     688.0000140 magnetization      -0.0000000
 augmentation part      688.0000140 magnetization      -0.0000000

 Free energy of the ion-electron system (eV)
  ---------------------------------------------------
  alpha Z        PSCENC =      2364.70179543
  Ewald energy   TEWEN  =    -62572.58759588
  -Hartree energ DENC   =    -42643.94510048
  -exchange      EXHF   =         0.00000000
  -V(xc)+E(xc)   XCENC  =      3278.85112554
  PAW double counting   =    112006.03736751  -115694.97744343
  entropy T*S    EENTRO =         0.00000000
  eigenvalues    EBANDS =    -11118.22589952
  atomic energy  EATOM  =    114020.06510763
  Solvation  Ediel_sol  =         0.00000000
  ---------------------------------------------------
  free energy    TOTEN  =      -360.08064319 eV

  energy without entropy =     -360.08064319  energy(sigma->0) =     -360.08064319


--------------------------------------------------------------------------------------------------------




--------------------------------------- Iteration      1(   4)  ---------------------------------------


     EDDAV:  cpu time  142.9239: real time  143.9192
 BZINTS: Fermi energy:  4.839029;688.000000 electrons
         Band energy:***********;  BLOECHL correction:  0.000000
       DOS:  cpu time    0.0053: real time    0.0053
    --------------------------------------------
      LOOP:  cpu time  142.9291: real time  143.9244

 eigenvalue-minimisations  : 20992
 total energy-change (2. order) :-0.3408066E+01  (-0.3407869E+01)
 number of electron     688.0000140 magnetization      -0.0000000
 augmentation part      688.0000140 magnetization      -0.0000000

 Free energy of the ion-electron system (eV)
  ---------------------------------------------------
  alpha Z        PSCENC =      2364.70179543
  Ewald energy   TEWEN  =    -62572.58759588
  -Hartree energ DENC   =    -42643.94510048
  -exchange      EXHF   =         0.00000000
  -V(xc)+E(xc)   XCENC  =      3278.85112554
  PAW double counting   =    112006.03736751  -115694.97744343
  entropy T*S    EENTRO =         0.00000000
  eigenvalues    EBANDS =    -11121.63396579
  atomic energy  EATOM  =    114020.06510763
  Solvation  Ediel_sol  =         0.00000000
  ---------------------------------------------------
  free energy    TOTEN  =      -363.48870947 eV

  energy without entropy =     -363.48870947  energy(sigma->0) =     -363.48870947


--------------------------------------------------------------------------------------------------------




--------------------------------------- Iteration      1(   5)  ---------------------------------------


     EDDAV:  cpu time  131.7021: real time  132.6251
 BZINTS: Fermi energy:  4.894408;688.000000 electrons
         Band energy:***********;  BLOECHL correction:  0.000000
       DOS:  cpu time    0.0069: real time    0.0069
    CHARGE:  cpu time    1.3832: real time    1.3935
    MIXING:  cpu time    0.0052: real time    0.0053
    --------------------------------------------
      LOOP:  cpu time  133.0975: real time  134.0309

 eigenvalue-minimisations  : 20480
 total energy-change (2. order) :-0.1063360E+00  (-0.1063356E+00)
 number of electron     688.0000011 magnetization      -0.0000000
 augmentation part      285.9439532 magnetization      -0.0000000

 Broyden mixing:
  rms(total) = 0.47123E+01    rms(broyden)= 0.47118E+01
  rms(prec ) = 0.52894E+01
  weight for this iteration     100.00

 Free energy of the ion-electron system (eV)
  ---------------------------------------------------
  alpha Z        PSCENC =      2364.70179543
  Ewald energy   TEWEN  =    -62572.58759588
  -Hartree energ DENC   =    -42643.94510048
  -exchange      EXHF   =         0.00000000
  -V(xc)+E(xc)   XCENC  =      3278.85112554
  PAW double counting   =    112006.03736751  -115694.97744343
  entropy T*S    EENTRO =         0.00000000
  eigenvalues    EBANDS =    -11121.74030181
  atomic energy  EATOM  =    114020.06510763
  Solvation  Ediel_sol  =         0.00000000
  ---------------------------------------------------
  free energy    TOTEN  =      -363.59504549 eV

  energy without entropy =     -363.59504549  energy(sigma->0) =     -363.59504549


--------------------------------------------------------------------------------------------------------




--------------------------------------- Iteration      1(   6)  ---------------------------------------


    POTLOK:  cpu time    0.1186: real time    0.1225
    SETDIJ:  cpu time    0.0126: real time    0.0127
     EDDAV:  cpu time  176.2237: real time  177.4059
 BZINTS: Fermi energy:  5.270882;688.000000 electrons
         Band energy:***********;  BLOECHL correction:  0.000000
       DOS:  cpu time    0.0060: real time    0.0061
    CHARGE:  cpu time    1.3809: real time    1.3914
    MIXING:  cpu time    0.0026: real time    0.3139
    --------------------------------------------
      LOOP:  cpu time  177.7445: real time  179.2525

 eigenvalue-minimisations  : 25600
 total energy-change (2. order) : 0.2714060E+02  (-0.3958191E+01)
 number of electron     688.0000011 magnetization      -0.0000000
 augmentation part      279.7402999 magnetization      -0.0000000

 Broyden mixing:
  rms(total) = 0.27230E+01    rms(broyden)= 0.27230E+01
  rms(prec ) = 0.30281E+01
  weight for this iteration     100.00

 eigenvalues of (default mixing * dielectric matrix)
  average eigenvalue GAMMA=   0.7249
  0.7249

 Free energy of the ion-electron system (eV)
  ---------------------------------------------------
  alpha Z        PSCENC =      2364.70179543
  Ewald energy   TEWEN  =    -62572.58759588
  -Hartree energ DENC   =    -43005.16413859
  -exchange      EXHF   =         0.00000000
  -V(xc)+E(xc)   XCENC  =      3288.51280949
  PAW double counting   =    115065.11010727  -118798.48632229
  entropy T*S    EENTRO =         0.00000000
  eigenvalues    EBANDS =    -10698.60620695
  atomic energy  EATOM  =    114020.06510763
  Solvation  Ediel_sol  =         0.00000000
  ---------------------------------------------------
  free energy    TOTEN  =      -336.45444389 eV

  energy without entropy =     -336.45444389  energy(sigma->0) =     -336.45444389


--------------------------------------------------------------------------------------------------------




--------------------------------------- Iteration      1(   7)  ---------------------------------------


    POTLOK:  cpu time    0.1222: real time    0.1230
    SETDIJ:  cpu time    0.0126: real time    0.0126
     EDDAV:  cpu time  125.2501: real time  126.1417
 BZINTS: Fermi energy:  4.910921;688.000000 electrons
         Band energy:***********;  BLOECHL correction:  0.000000
       DOS:  cpu time    0.0060: real time    0.0060
    CHARGE:  cpu time    1.3801: real time    1.3904
    MIXING:  cpu time    0.0016: real time    0.0248
    --------------------------------------------
      LOOP:  cpu time  126.7725: real time  127.6985

 eigenvalue-minimisations  : 20480
 total energy-change (2. order) : 0.7198272E+01  (-0.1879709E+01)
 number of electron     688.0000012 magnetization      -0.0000000
 augmentation part      283.4898552 magnetization      -0.0000000

 Broyden mixing:
  rms(total) = 0.19678E+01    rms(broyden)= 0.19678E+01
  rms(prec ) = 0.20763E+01
  weight for this iteration     100.00

 eigenvalues of (default mixing * dielectric matrix)
  average eigenvalue GAMMA=   0.8935
  1.2958  0.4912

 Free energy of the ion-electron system (eV)
  ---------------------------------------------------
  alpha Z        PSCENC =      2364.70179543
  Ewald energy   TEWEN  =    -62572.58759588
  -Hartree energ DENC   =    -42790.16310759
  -exchange      EXHF   =         0.00000000
  -V(xc)+E(xc)   XCENC  =      3284.37454203
  PAW double counting   =    114328.77297030  -118011.87034865
  entropy T*S    EENTRO =         0.00000000
  eigenvalues    EBANDS =    -10952.54953485
  atomic energy  EATOM  =    114020.06510763
  Solvation  Ediel_sol  =         0.00000000
  ---------------------------------------------------
  free energy    TOTEN  =      -329.25617158 eV

  energy without entropy =     -329.25617158  energy(sigma->0) =     -329.25617158


--------------------------------------------------------------------------------------------------------




--------------------------------------- Iteration      1(   8)  ---------------------------------------


    POTLOK:  cpu time    0.1214: real time    0.1223
    SETDIJ:  cpu time    0.0127: real time    0.0127
     EDDAV:  cpu time  190.6358: real time  191.9117
 BZINTS: Fermi energy:  4.972460;688.000000 electrons
         Band energy:***********;  BLOECHL correction:  0.000000
       DOS:  cpu time    0.0059: real time    0.0059
    CHARGE:  cpu time    1.5317: real time    1.5411
    MIXING:  cpu time    0.0015: real time    0.0274
    --------------------------------------------
      LOOP:  cpu time  192.3089: real time  193.6211

 eigenvalue-minimisations  : 26624
 total energy-change (2. order) : 0.1779776E+01  (-0.7823144E+00)
 number of electron     688.0000012 magnetization       0.0000000
 augmentation part      283.2420408 magnetization       0.0000000

 Broyden mixing:
  rms(total) = 0.80119E+00    rms(broyden)= 0.80118E+00
  rms(prec ) = 0.90091E+00
  weight for this iteration     100.00

 eigenvalues of (default mixing * dielectric matrix)
  average eigenvalue GAMMA=   0.9803
  1.7214  0.6097  0.6097

 Free energy of the ion-electron system (eV)
  ---------------------------------------------------
  alpha Z        PSCENC =      2364.70179543
  Ewald energy   TEWEN  =    -62572.58759588
  -Hartree energ DENC   =    -42851.15860890
  -exchange      EXHF   =         0.00000000
  -V(xc)+E(xc)   XCENC  =      3286.33601090
  PAW double counting   =    113605.51093467  -117296.24612662
  entropy T*S    EENTRO =         0.00000000
  eigenvalues    EBANDS =    -10884.09791296
  atomic energy  EATOM  =    114020.06510763
  Solvation  Ediel_sol  =         0.00000000
  ---------------------------------------------------
  free energy    TOTEN  =      -327.47639572 eV

  energy without entropy =     -327.47639572  energy(sigma->0) =     -327.47639572


--------------------------------------------------------------------------------------------------------




--------------------------------------- Iteration      1(   9)  ---------------------------------------


    POTLOK:  cpu time    0.1224: real time    0.1232
    SETDIJ:  cpu time    0.0128: real time    0.0129
     EDDAV:  cpu time  163.0448: real time  164.1513
 BZINTS: Fermi energy:  4.945875;688.000000 electrons
         Band energy:***********;  BLOECHL correction:  0.000000
       DOS:  cpu time    0.0059: real time    0.0059
    CHARGE:  cpu time    1.3799: real time    1.3901
    MIXING:  cpu time    0.0014: real time    0.0014
    --------------------------------------------
      LOOP:  cpu time  164.5672: real time  165.6849

 eigenvalue-minimisations  : 23296
 total energy-change (2. order) : 0.1036017E+00  (-0.5164408E+00)
 number of electron     688.0000012 magnetization       0.0000000
 augmentation part      282.0834277 magnetization       0.0000000

 Broyden mixing:
  rms(total) = 0.71049E+00    rms(broyden)= 0.71048E+00
  rms(prec ) = 0.80132E+00
  weight for this iteration     100.00

 eigenvalues of (default mixing * dielectric matrix)
  average eigenvalue GAMMA=   0.9139
  1.9006  0.7563  0.4994  0.4994

 Free energy of the ion-electron system (eV)
  ---------------------------------------------------
  alpha Z        PSCENC =      2364.70179543
  Ewald energy   TEWEN  =    -62572.58759588
  -Hartree energ DENC   =    -42886.11190046
  -exchange      EXHF   =         0.00000000
  -V(xc)+E(xc)   XCENC  =      3286.04734354
  PAW double counting   =    113369.08144976  -117064.86462714
  entropy T*S    EENTRO =         0.00000000
  eigenvalues    EBANDS =    -10843.70436686
  atomic energy  EATOM  =    114020.06510763
  Solvation  Ediel_sol  =         0.00000000
  ---------------------------------------------------
  free energy    TOTEN  =      -327.37279398 eV

  energy without entropy =     -327.37279398  energy(sigma->0) =     -327.37279398


--------------------------------------------------------------------------------------------------------




--------------------------------------- Iteration      1(  10)  ---------------------------------------


    POTLOK:  cpu time    0.1213: real time    0.1221
    SETDIJ:  cpu time    0.0127: real time    0.0128
     EDDAV:  cpu time  132.5968: real time  133.5305
 BZINTS: Fermi energy:  4.984776;688.000000 electrons
         Band energy:***********;  BLOECHL correction:  0.000000
       DOS:  cpu time    0.0060: real time    0.0060
    CHARGE:  cpu time    1.3783: real time    1.3887
    MIXING:  cpu time    0.0015: real time    0.0015
    --------------------------------------------
      LOOP:  cpu time  134.1166: real time  135.0616

 eigenvalue-minimisations  : 20992
 total energy-change (2. order) : 0.9441990E-01  (-0.2699518E+00)
 number of electron     688.0000012 magnetization       0.0000000
 augmentation part      282.0270099 magnetization       0.0000000

 Broyden mixing:
  rms(total) = 0.36405E+00    rms(broyden)= 0.36404E+00
  rms(prec ) = 0.40209E+00
  weight for this iteration     100.00

 eigenvalues of (default mixing * dielectric matrix)
  average eigenvalue GAMMA=   0.9921
  1.7108  1.7108  0.6213  0.5037  0.4136

 Free energy of the ion-electron system (eV)
  ---------------------------------------------------
  alpha Z        PSCENC =      2364.70179543
  Ewald energy   TEWEN  =    -62572.58759588
  -Hartree energ DENC   =    -42909.23941941
  -exchange      EXHF   =         0.00000000
  -V(xc)+E(xc)   XCENC  =      3287.33596544
  PAW double counting   =    113146.01390393  -116841.96527052
  entropy T*S    EENTRO =         0.00000000
  eigenvalues    EBANDS =    -10821.60286070
  atomic energy  EATOM  =    114020.06510763
  Solvation  Ediel_sol  =         0.00000000
  ---------------------------------------------------
  free energy    TOTEN  =      -327.27837408 eV

  energy without entropy =     -327.27837408  energy(sigma->0) =     -327.27837408


--------------------------------------------------------------------------------------------------------




--------------------------------------- Iteration      1(  11)  ---------------------------------------


    POTLOK:  cpu time    0.1212: real time    0.1221
    SETDIJ:  cpu time    0.0127: real time    0.0127
     EDDAV:  cpu time  125.4744: real time  126.3568
 BZINTS: Fermi energy:  4.958878;688.000000 electrons
         Band energy:***********;  BLOECHL correction:  0.000000
       DOS:  cpu time    0.0059: real time    0.0059
    CHARGE:  cpu time    1.3820: real time    1.3903
    MIXING:  cpu time    0.0015: real time    0.0015
    --------------------------------------------
      LOOP:  cpu time  126.9977: real time  127.8893

 eigenvalue-minimisations  : 19968
 total energy-change (2. order) :-0.2348174E-02  (-0.7840718E-01)
 number of electron     688.0000012 magnetization       0.0000000
 augmentation part      282.2548340 magnetization       0.0000000

 Broyden mixing:
  rms(total) = 0.15817E+00    rms(broyden)= 0.15817E+00
  rms(prec ) = 0.17618E+00
  weight for this iteration     100.00

 eigenvalues of (default mixing * dielectric matrix)
  average eigenvalue GAMMA=   1.0603
  2.0259  2.0259  0.7428  0.6101  0.6101  0.3470

 Free energy of the ion-electron system (eV)
  ---------------------------------------------------
  alpha Z        PSCENC =      2364.70179543
  Ewald energy   TEWEN  =    -62572.58759588
  -Hartree energ DENC   =    -42883.76694594
  -exchange      EXHF   =         0.00000000
  -V(xc)+E(xc)   XCENC  =      3286.38879891
  PAW double counting   =    112639.31583060  -116331.08402192
  entropy T*S    EENTRO =         0.00000000
  eigenvalues    EBANDS =    -10850.31369109
  atomic energy  EATOM  =    114020.06510763
  Solvation  Ediel_sol  =         0.00000000
  ---------------------------------------------------
  free energy    TOTEN  =      -327.28072226 eV

  energy without entropy =     -327.28072226  energy(sigma->0) =     -327.28072226


--------------------------------------------------------------------------------------------------------




--------------------------------------- Iteration      1(  12)  ---------------------------------------


    POTLOK:  cpu time    0.1195: real time    0.1224
    SETDIJ:  cpu time    0.0127: real time    0.0127
     EDDAV:  cpu time  206.4430: real time  207.7956
 BZINTS: Fermi energy:  4.965700;688.000000 electrons
         Band energy:***********;  BLOECHL correction:  0.000000
       DOS:  cpu time    0.0059: real time    0.0060
    CHARGE:  cpu time    1.3820: real time    1.3914
    MIXING:  cpu time    0.0015: real time    0.0015
    --------------------------------------------
      LOOP:  cpu time  207.9646: real time  209.3296

 eigenvalue-minimisations  : 27648
 total energy-change (2. order) :-0.1400343E-01  (-0.1290499E-01)
 number of electron     688.0000012 magnetization       0.0000000
 augmentation part      282.2341090 magnetization       0.0000000

 Broyden mixing:
  rms(total) = 0.59436E-01    rms(broyden)= 0.59432E-01
  rms(prec ) = 0.62409E-01
  weight for this iteration     100.00

 eigenvalues of (default mixing * dielectric matrix)
  average eigenvalue GAMMA=   1.0920
  2.2168  2.2168  1.0175  0.6601  0.5940  0.5940  0.3450

 Free energy of the ion-electron system (eV)
  ---------------------------------------------------
  alpha Z        PSCENC =      2364.70179543
  Ewald energy   TEWEN  =    -62572.58759588
  -Hartree energ DENC   =    -42889.85587138
  -exchange      EXHF   =         0.00000000
  -V(xc)+E(xc)   XCENC  =      3286.59541889
  PAW double counting   =    112395.35465204  -116088.17307244
  entropy T*S    EENTRO =         0.00000000
  eigenvalues    EBANDS =    -10843.39515997
  atomic energy  EATOM  =    114020.06510763
  Solvation  Ediel_sol  =         0.00000000
  ---------------------------------------------------
  free energy    TOTEN  =      -327.29472568 eV

  energy without entropy =     -327.29472568  energy(sigma->0) =     -327.29472568


--------------------------------------------------------------------------------------------------------




--------------------------------------- Iteration      1(  13)  ---------------------------------------


    POTLOK:  cpu time    0.1214: real time    0.1221
    SETDIJ:  cpu time    0.0127: real time    0.0127
     EDDAV:  cpu time  127.1336: real time  128.0281
 BZINTS: Fermi energy:  4.964734;688.000000 electrons
         Band energy:***********;  BLOECHL correction:  0.000000
       DOS:  cpu time    0.0059: real time    0.0059
    CHARGE:  cpu time    1.3805: real time    1.3901
    MIXING:  cpu time    0.0017: real time    0.0017
    --------------------------------------------
      LOOP:  cpu time  128.6558: real time  129.5606

 eigenvalue-minimisations  : 19968
 total energy-change (2. order) :-0.5328829E-02  (-0.1379581E-02)
 number of electron     688.0000012 magnetization       0.0000000
 augmentation part      282.2346636 magnetization       0.0000000

 Broyden mixing:
  rms(total) = 0.28794E-01    rms(broyden)= 0.28793E-01
  rms(prec ) = 0.30667E-01
  weight for this iteration     100.00

 eigenvalues of (default mixing * dielectric matrix)
  average eigenvalue GAMMA=   1.1103
  2.2917  2.2917  1.2190  0.8942  0.3452  0.5932  0.5932  0.6546

 Free energy of the ion-electron system (eV)
  ---------------------------------------------------
  alpha Z        PSCENC =      2364.70179543
  Ewald energy   TEWEN  =    -62572.58759588
  -Hartree energ DENC   =    -42889.35551976
  -exchange      EXHF   =         0.00000000
  -V(xc)+E(xc)   XCENC  =      3286.60313312
  PAW double counting   =    112291.33988614  -115984.00240007
  entropy T*S    EENTRO =         0.00000000
  eigenvalues    EBANDS =    -10844.06446111
  atomic energy  EATOM  =    114020.06510763
  Solvation  Ediel_sol  =         0.00000000
  ---------------------------------------------------
  free energy    TOTEN  =      -327.30005451 eV

  energy without entropy =     -327.30005451  energy(sigma->0) =     -327.30005451


--------------------------------------------------------------------------------------------------------




--------------------------------------- Iteration      1(  14)  ---------------------------------------


    POTLOK:  cpu time    0.1209: real time    0.1218
    SETDIJ:  cpu time    0.0126: real time    0.0127
     EDDAV:  cpu time  166.3192: real time  167.4278
 BZINTS: Fermi energy:  4.964234;688.000000 electrons
         Band energy:***********;  BLOECHL correction:  0.000000
       DOS:  cpu time    0.0060: real time    0.0060
    CHARGE:  cpu time    1.3808: real time    1.3915
    MIXING:  cpu time    0.0017: real time    0.0017
    --------------------------------------------
      LOOP:  cpu time  167.8412: real time  168.9615

 eigenvalue-minimisations  : 23040
 total energy-change (2. order) :-0.1936208E-02  (-0.5119292E-03)
 number of electron     688.0000012 magnetization       0.0000000
 augmentation part      282.2434918 magnetization       0.0000000

 Broyden mixing:
  rms(total) = 0.15527E-01    rms(broyden)= 0.15526E-01
  rms(prec ) = 0.16277E-01
  weight for this iteration     100.00

 eigenvalues of (default mixing * dielectric matrix)
  average eigenvalue GAMMA=   1.1677
  2.4312  2.4312  1.4769  1.2893  0.3452  0.5971  0.5971  0.7145  0.6265

 Free energy of the ion-electron system (eV)
  ---------------------------------------------------
  alpha Z        PSCENC =      2364.70179543
  Ewald energy   TEWEN  =    -62572.58759588
  -Hartree energ DENC   =    -42889.12731018
  -exchange      EXHF   =         0.00000000
  -V(xc)+E(xc)   XCENC  =      3286.60996555
  PAW double counting   =    112254.42669136  -115947.30401969
  entropy T*S    EENTRO =         0.00000000
  eigenvalues    EBANDS =    -10844.08662493
  atomic energy  EATOM  =    114020.06510763
  Solvation  Ediel_sol  =         0.00000000
  ---------------------------------------------------
  free energy    TOTEN  =      -327.30199072 eV

  energy without entropy =     -327.30199072  energy(sigma->0) =     -327.30199072


--------------------------------------------------------------------------------------------------------




--------------------------------------- Iteration      1(  15)  ---------------------------------------


    POTLOK:  cpu time    0.1212: real time    0.1220
    SETDIJ:  cpu time    0.0126: real time    0.0127
     EDDAV:  cpu time  110.1377: real time  110.9371
 BZINTS: Fermi energy:  4.964178;688.000000 electrons
         Band energy:***********;  BLOECHL correction:  0.000000
       DOS:  cpu time    0.0059: real time    0.0060
    CHARGE:  cpu time    1.5640: real time    1.5748
    MIXING:  cpu time    0.0019: real time    0.0019
    --------------------------------------------
      LOOP:  cpu time  111.8433: real time  112.6544

 eigenvalue-minimisations  : 18176
 total energy-change (2. order) :-0.9194219E-03  (-0.2170565E-03)
 number of electron     688.0000012 magnetization       0.0000000
 augmentation part      282.2346537 magnetization       0.0000000

 Broyden mixing:
  rms(total) = 0.85641E-02    rms(broyden)= 0.85632E-02
  rms(prec ) = 0.91504E-02
  weight for this iteration     100.00

 eigenvalues of (default mixing * dielectric matrix)
  average eigenvalue GAMMA=   1.1818
  2.6987  2.3410  1.7437  1.0970  1.0970  0.3452  0.5946  0.5946  0.6963  0.6100

 Free energy of the ion-electron system (eV)
  ---------------------------------------------------
  alpha Z        PSCENC =      2364.70179543
  Ewald energy   TEWEN  =    -62572.58759588
  -Hartree energ DENC   =    -42889.48982321
  -exchange      EXHF   =         0.00000000
  -V(xc)+E(xc)   XCENC  =      3286.60962592
  PAW double counting   =    112240.60432964  -115933.53579716
  entropy T*S    EENTRO =         0.00000000
  eigenvalues    EBANDS =    -10843.67055251
  atomic energy  EATOM  =    114020.06510763
  Solvation  Ediel_sol  =         0.00000000
  ---------------------------------------------------
  free energy    TOTEN  =      -327.30291014 eV

  energy without entropy =     -327.30291014  energy(sigma->0) =     -327.30291014


--------------------------------------------------------------------------------------------------------




--------------------------------------- Iteration      1(  16)  ---------------------------------------


    POTLOK:  cpu time    0.1353: real time    0.1363
    SETDIJ:  cpu time    0.0147: real time    0.0148
     EDDAV:  cpu time  163.1792: real time  164.2677
 BZINTS: Fermi energy:  4.963924;688.000000 electrons
         Band energy:***********;  BLOECHL correction:  0.000000
       DOS:  cpu time    0.0059: real time    0.0060
    CHARGE:  cpu time    1.3808: real time    1.3913
    MIXING:  cpu time    0.0019: real time    0.0133
    --------------------------------------------
      LOOP:  cpu time  164.7179: real time  165.8294

 eigenvalue-minimisations  : 22528
 total energy-change (2. order) :-0.3511230E-03  (-0.9277304E-04)
 number of electron     688.0000012 magnetization       0.0000000
 augmentation part      282.2382722 magnetization       0.0000000

 Broyden mixing:
  rms(total) = 0.55568E-02    rms(broyden)= 0.55562E-02
  rms(prec ) = 0.59482E-02
  weight for this iteration     100.00

 eigenvalues of (default mixing * dielectric matrix)
  average eigenvalue GAMMA=   1.2297
  3.0426  2.1072  2.1072  1.3076  1.3076  0.3452  0.8164  0.5938  0.5938  0.6994
  0.6058

 Free energy of the ion-electron system (eV)
  ---------------------------------------------------
  alpha Z        PSCENC =      2364.70179543
  Ewald energy   TEWEN  =    -62572.58759588
  -Hartree energ DENC   =    -42889.40252630
  -exchange      EXHF   =         0.00000000
  -V(xc)+E(xc)   XCENC  =      3286.61167392
  PAW double counting   =    112236.69592416  -115929.59924569
  entropy T*S    EENTRO =         0.00000000
  eigenvalues    EBANDS =    -10843.78839453
  atomic energy  EATOM  =    114020.06510763
  Solvation  Ediel_sol  =         0.00000000
  ---------------------------------------------------
  free energy    TOTEN  =      -327.30326126 eV

  energy without entropy =     -327.30326126  energy(sigma->0) =     -327.30326126


--------------------------------------------------------------------------------------------------------




--------------------------------------- Iteration      1(  17)  ---------------------------------------


    POTLOK:  cpu time    0.1210: real time    0.1217
    SETDIJ:  cpu time    0.0126: real time    0.0127
     EDDAV:  cpu time  108.5567: real time  109.3440
 BZINTS: Fermi energy:  4.963692;688.000000 electrons
         Band energy:***********;  BLOECHL correction:  0.000000
       DOS:  cpu time    0.0059: real time    0.0060
    CHARGE:  cpu time    1.3850: real time    1.3947
    MIXING:  cpu time    0.0020: real time    0.0020
    --------------------------------------------
      LOOP:  cpu time  110.0832: real time  110.8811

 eigenvalue-minimisations  : 18432
 total energy-change (2. order) :-0.1674971E-03  (-0.6977058E-04)
 number of electron     688.0000012 magnetization       0.0000000
 augmentation part      282.2381729 magnetization       0.0000000

 Broyden mixing:
  rms(total) = 0.29365E-02    rms(broyden)= 0.29357E-02
  rms(prec ) = 0.30919E-02
  weight for this iteration     100.00

 eigenvalues of (default mixing * dielectric matrix)
  average eigenvalue GAMMA=   1.3288
  3.8927  2.3349  2.3349  1.4058  1.4058  1.0681  0.3452  0.5947  0.5947  0.7136
  0.6540  0.6016

 Free energy of the ion-electron system (eV)
  ---------------------------------------------------
  alpha Z        PSCENC =      2364.70179543
  Ewald energy   TEWEN  =    -62572.58759588
  -Hartree energ DENC   =    -42889.35783569
  -exchange      EXHF   =         0.00000000
  -V(xc)+E(xc)   XCENC  =      3286.61048967
  PAW double counting   =    112242.58151810  -115935.47943609
  entropy T*S    EENTRO =         0.00000000
  eigenvalues    EBANDS =    -10843.83747192
  atomic energy  EATOM  =    114020.06510763
  Solvation  Ediel_sol  =         0.00000000
  ---------------------------------------------------
  free energy    TOTEN  =      -327.30342876 eV

  energy without entropy =     -327.30342876  energy(sigma->0) =     -327.30342876


--------------------------------------------------------------------------------------------------------




--------------------------------------- Iteration      1(  18)  ---------------------------------------


    POTLOK:  cpu time    0.1221: real time    0.1229
    SETDIJ:  cpu time    0.0127: real time    0.0128
     EDDAV:  cpu time  149.7953: real time  150.8206
 BZINTS: Fermi energy:  4.963522;688.000000 electrons
         Band energy:***********;  BLOECHL correction:  0.000000
       DOS:  cpu time    0.0059: real time    0.0059
    CHARGE:  cpu time    1.3859: real time    1.3943
    MIXING:  cpu time    0.0020: real time    0.0020
    --------------------------------------------
      LOOP:  cpu time  151.3239: real time  152.3584

 eigenvalue-minimisations  : 21504
 total energy-change (2. order) :-0.4509807E-04  (-0.2811913E-04)
 number of electron     688.0000012 magnetization       0.0000000
 augmentation part      282.2380219 magnetization       0.0000000

 Broyden mixing:
  rms(total) = 0.13518E-02    rms(broyden)= 0.13509E-02
  rms(prec ) = 0.14639E-02
  weight for this iteration     100.00

 eigenvalues of (default mixing * dielectric matrix)
  average eigenvalue GAMMA=   1.3279
  4.0892  2.3793  2.3793  1.6716  1.1700  1.1700  0.9172  0.3452  0.5936  0.5936
  0.7187  0.6360  0.5996

 Free energy of the ion-electron system (eV)
  ---------------------------------------------------
  alpha Z        PSCENC =      2364.70179543
  Ewald energy   TEWEN  =    -62572.58759588
  -Hartree energ DENC   =    -42889.32581999
  -exchange      EXHF   =         0.00000000
  -V(xc)+E(xc)   XCENC  =      3286.60813291
  PAW double counting   =    112246.77924954  -115939.66829795
  entropy T*S    EENTRO =         0.00000000
  eigenvalues    EBANDS =    -10843.87604555
  atomic energy  EATOM  =    114020.06510763
  Solvation  Ediel_sol  =         0.00000000
  ---------------------------------------------------
  free energy    TOTEN  =      -327.30347386 eV

  energy without entropy =     -327.30347386  energy(sigma->0) =     -327.30347386


--------------------------------------------------------------------------------------------------------




--------------------------------------- Iteration      1(  19)  ---------------------------------------


    POTLOK:  cpu time    0.1218: real time    0.1225
    SETDIJ:  cpu time    0.0126: real time    0.0127
     EDDAV:  cpu time  107.0573: real time  107.8285
 BZINTS: Fermi energy:  4.963473;688.000000 electrons
         Band energy:***********;  BLOECHL correction:  0.000000
       DOS:  cpu time    0.0062: real time    0.0063
    CHARGE:  cpu time    1.3837: real time    1.3944
    MIXING:  cpu time    0.0021: real time    0.0021
    --------------------------------------------
      LOOP:  cpu time  108.5837: real time  109.3664

 eigenvalue-minimisations  : 17920
 total energy-change (2. order) :-0.4358837E-05  (-0.1834190E-05)
 number of electron     688.0000012 magnetization       0.0000000
 augmentation part      282.2375336 magnetization       0.0000000

 Broyden mixing:
[...]
   -.403E+02 0.328E+02 -.162E+01   0.411E+02 -.331E+02 0.164E+01   -.828E+00 0.191E+00 -.188E-01   0.900E-05 0.177E-04 -.258E-05
   -.403E+02 0.328E+02 -.162E+01   0.411E+02 -.331E+02 0.164E+01   -.828E+00 0.191E+00 -.188E-01   0.898E-05 0.177E-04 -.258E-05
   -.403E+02 0.328E+02 -.162E+01   0.411E+02 -.331E+02 0.164E+01   -.828E+00 0.191E+00 -.188E-01   0.900E-05 0.177E-04 -.258E-05
   -.403E+02 0.328E+02 -.162E+01   0.411E+02 -.331E+02 0.164E+01   -.828E+00 0.191E+00 -.188E-01   0.898E-05 0.177E-04 -.258E-05
   0.403E+02 0.328E+02 0.162E+01   -.411E+02 -.331E+02 -.164E+01   0.828E+00 0.191E+00 0.188E-01   -.899E-05 0.177E-04 0.258E-05
   0.403E+02 0.328E+02 0.162E+01   -.411E+02 -.331E+02 -.164E+01   0.828E+00 0.191E+00 0.188E-01   -.899E-05 0.177E-04 0.258E-05
   0.403E+02 0.328E+02 0.162E+01   -.411E+02 -.331E+02 -.164E+01   0.828E+00 0.191E+00 0.188E-01   -.899E-05 0.177E-04 0.258E-05
   0.403E+02 0.328E+02 0.162E+01   -.411E+02 -.331E+02 -.164E+01   0.828E+00 0.191E+00 0.188E-01   -.899E-05 0.177E-04 0.258E-05
   -.237E-07 -.218E+02 -.230E-06   -.924E-13 0.225E+02 0.117E-12   0.323E-24 -.703E+00 0.248E-23   -.582E-10 0.248E-04 -.323E-09
   -.237E-07 -.218E+02 -.230E-06   -.110E-12 0.225E+02 0.106E-12   0.118E-23 -.703E+00 -.186E-23   0.476E-10 0.248E-04 0.322E-09
   -.237E-07 -.218E+02 -.230E-06   -.995E-13 0.225E+02 0.711E-13   -.969E-24 -.703E+00 0.145E-23   -.583E-10 0.248E-04 -.323E-09
   -.237E-07 -.218E+02 -.230E-06   -.103E-12 0.225E+02 0.131E-12   -.659E-24 -.703E+00 -.207E-24   0.475E-10 0.248E-04 0.322E-09
   -.286E-08 0.647E+02 0.227E-07   0.105E-12 -.658E+02 -.471E-13   0.132E-23 0.101E+01 0.149E-24   0.886E-08 0.188E-04 -.386E-09
   -.286E-08 0.647E+02 0.227E-07   0.110E-12 -.658E+02 -.284E-13   -.127E-23 0.101E+01 0.517E-25   -.885E-08 0.188E-04 0.384E-09
   -.286E-08 0.647E+02 0.227E-07   0.135E-12 -.658E+02 -.462E-13   0.553E-24 0.101E+01 -.258E-25   0.886E-08 0.188E-04 -.386E-09
   -.286E-08 0.647E+02 0.227E-07   0.114E-12 -.658E+02 -.568E-13   0.123E-23 0.101E+01 -.155E-24   -.885E-08 0.188E-04 0.384E-09
   0.440E+01 -.296E+02 0.520E+01   -.435E+01 0.284E+02 -.531E+01   -.364E-01 0.116E+01 0.100E+00   0.239E-05 0.403E-04 0.722E-05
   0.440E+01 -.296E+02 0.520E+01   -.435E+01 0.284E+02 -.531E+01   -.364E-01 0.116E+01 0.100E+00   0.235E-05 0.403E-04 0.722E-05
   0.440E+01 -.296E+02 0.520E+01   -.435E+01 0.284E+02 -.531E+01   -.364E-01 0.116E+01 0.100E+00   0.239E-05 0.402E-04 0.722E-05
   0.440E+01 -.296E+02 0.520E+01   -.435E+01 0.284E+02 -.531E+01   -.364E-01 0.116E+01 0.100E+00   0.235E-05 0.402E-04 0.722E-05
   -.440E+01 -.296E+02 -.520E+01   0.435E+01 0.284E+02 0.531E+01   0.364E-01 0.116E+01 -.100E+00   -.235E-05 0.403E-04 -.722E-05
   -.440E+01 -.296E+02 -.520E+01   0.435E+01 0.284E+02 0.531E+01   0.364E-01 0.116E+01 -.100E+00   -.239E-05 0.403E-04 -.722E-05
   -.440E+01 -.296E+02 -.520E+01   0.435E+01 0.284E+02 0.531E+01   0.364E-01 0.116E+01 -.100E+00   -.235E-05 0.402E-04 -.722E-05
   -.440E+01 -.296E+02 -.520E+01   0.435E+01 0.284E+02 0.531E+01   0.364E-01 0.116E+01 -.100E+00   -.239E-05 0.402E-04 -.722E-05
   0.440E+01 -.296E+02 0.520E+01   -.435E+01 0.284E+02 -.531E+01   -.364E-01 0.116E+01 0.100E+00   0.239E-05 0.403E-04 0.722E-05
   0.440E+01 -.296E+02 0.520E+01   -.435E+01 0.284E+02 -.531E+01   -.364E-01 0.116E+01 0.100E+00   0.235E-05 0.403E-04 0.722E-05
   0.440E+01 -.296E+02 0.520E+01   -.435E+01 0.284E+02 -.531E+01   -.364E-01 0.116E+01 0.100E+00   0.239E-05 0.402E-04 0.722E-05
   0.440E+01 -.296E+02 0.520E+01   -.435E+01 0.284E+02 -.531E+01   -.364E-01 0.116E+01 0.100E+00   0.235E-05 0.402E-04 0.722E-05
   -.440E+01 -.296E+02 -.520E+01   0.435E+01 0.284E+02 0.531E+01   0.364E-01 0.116E+01 -.100E+00   -.235E-05 0.403E-04 -.723E-05
   -.440E+01 -.296E+02 -.520E+01   0.435E+01 0.284E+02 0.531E+01   0.364E-01 0.116E+01 -.100E+00   -.239E-05 0.403E-04 -.722E-05
   -.440E+01 -.296E+02 -.520E+01   0.435E+01 0.284E+02 0.531E+01   0.364E-01 0.116E+01 -.100E+00   -.235E-05 0.402E-04 -.723E-05
   -.440E+01 -.296E+02 -.520E+01   0.435E+01 0.284E+02 0.531E+01   0.364E-01 0.116E+01 -.100E+00   -.239E-05 0.402E-04 -.722E-05
   -.829E+01 -.277E+02 0.618E+01   0.818E+01 0.263E+02 -.633E+01   0.121E+00 0.151E+01 0.105E+00   -.202E-06 0.152E-04 0.247E-04
   -.829E+01 -.277E+02 0.618E+01   0.818E+01 0.263E+02 -.633E+01   0.121E+00 0.151E+01 0.105E+00   -.232E-06 0.152E-04 0.247E-04
   -.829E+01 -.277E+02 0.618E+01   0.818E+01 0.263E+02 -.633E+01   0.121E+00 0.151E+01 0.105E+00   -.202E-06 0.152E-04 0.247E-04
   -.829E+01 -.277E+02 0.618E+01   0.818E+01 0.263E+02 -.633E+01   0.121E+00 0.151E+01 0.105E+00   -.232E-06 0.152E-04 0.247E-04
   0.829E+01 -.277E+02 -.618E+01   -.818E+01 0.263E+02 0.633E+01   -.121E+00 0.151E+01 -.105E+00   0.233E-06 0.152E-04 -.247E-04
   0.829E+01 -.277E+02 -.618E+01   -.818E+01 0.263E+02 0.633E+01   -.121E+00 0.151E+01 -.105E+00   0.201E-06 0.152E-04 -.247E-04
   0.829E+01 -.277E+02 -.618E+01   -.818E+01 0.263E+02 0.633E+01   -.121E+00 0.151E+01 -.105E+00   0.233E-06 0.152E-04 -.247E-04
   0.829E+01 -.277E+02 -.618E+01   -.818E+01 0.263E+02 0.633E+01   -.121E+00 0.151E+01 -.105E+00   0.201E-06 0.152E-04 -.247E-04
   -.829E+01 -.277E+02 0.618E+01   0.818E+01 0.263E+02 -.633E+01   0.121E+00 0.151E+01 0.105E+00   -.202E-06 0.152E-04 0.247E-04
   -.829E+01 -.277E+02 0.618E+01   0.818E+01 0.263E+02 -.633E+01   0.121E+00 0.151E+01 0.105E+00   -.232E-06 0.152E-04 0.247E-04
   -.829E+01 -.277E+02 0.618E+01   0.818E+01 0.263E+02 -.633E+01   0.121E+00 0.151E+01 0.105E+00   -.202E-06 0.152E-04 0.247E-04
   -.829E+01 -.277E+02 0.618E+01   0.818E+01 0.263E+02 -.633E+01   0.121E+00 0.151E+01 0.105E+00   -.232E-06 0.152E-04 0.247E-04
   0.829E+01 -.277E+02 -.618E+01   -.818E+01 0.263E+02 0.633E+01   -.121E+00 0.151E+01 -.105E+00   0.233E-06 0.152E-04 -.247E-04
   0.829E+01 -.277E+02 -.618E+01   -.818E+01 0.263E+02 0.633E+01   -.121E+00 0.151E+01 -.105E+00   0.201E-06 0.152E-04 -.247E-04
   0.829E+01 -.277E+02 -.618E+01   -.818E+01 0.263E+02 0.633E+01   -.121E+00 0.151E+01 -.105E+00   0.233E-06 0.152E-04 -.247E-04
   0.829E+01 -.277E+02 -.618E+01   -.818E+01 0.263E+02 0.633E+01   -.121E+00 0.151E+01 -.105E+00   0.201E-06 0.152E-04 -.247E-04
 -----------------------------------------------------------------------------------------------
   -.566E-05 -.482E+02 -.255E-03   -.959E-13 0.380E-12 -.732E-12   -.180E-15 0.482E+02 0.555E-16   0.762E-11 0.152E-02 0.102E-10
 
 
 POSITION                                       TOTAL-FORCE (eV/Angst)
 -----------------------------------------------------------------------------------
      1.38531      1.25587      1.36534         0.001685     -0.026340      0.004552
      6.63327      1.25587      1.59447         0.001685     -0.026340      0.004552
      1.38531      6.52205      1.36534         0.001685     -0.026340      0.004552
      6.63327      6.52205      1.59447         0.001685     -0.026340      0.004552
      3.97608      3.88896      1.46155        -0.001685     -0.026340     -0.004552
      9.22404      3.88896      1.69068        -0.001685     -0.026340     -0.004552
      3.97608      9.15514      1.46155        -0.001685     -0.026340     -0.004552
      9.22404      9.15514      1.69068        -0.001685     -0.026340     -0.004552
      1.70896      3.90852      9.14945         0.000000     -0.013668     -0.000000
      6.95693      3.90852      9.37858         0.000000     -0.013668     -0.000000
      1.70896      9.17470      9.14945         0.000000     -0.013668     -0.000000
      6.95693      9.17470      9.37858         0.000000     -0.013668     -0.000000
      4.33295      1.29000      9.26401         0.000000     -0.012183     -0.000000
      9.58091      1.29000      9.49314         0.000000     -0.012183     -0.000000
      4.33295      6.55619      9.26401         0.000000     -0.012183     -0.000000
      9.58091      6.55619      9.49314         0.000000     -0.012183     -0.000000
      1.57894      1.25587      6.54251        -0.001685     -0.026340     -0.004552
      6.82690      1.25587      6.77164        -0.001685     -0.026340     -0.004552
      1.57894      6.52205      6.54251        -0.001685     -0.026340     -0.004552
      6.82690      6.52205      6.77164        -0.001685     -0.026340     -0.004552
      4.23613      3.88896      6.67543         0.001685     -0.026340      0.004552
      9.48409      3.88896      6.90456         0.001685     -0.026340      0.004552
      4.23613      9.15514      6.67543         0.001685     -0.026340      0.004552
      9.48409      9.15514      6.90456         0.001685     -0.026340      0.004552
      4.10610      1.27543      4.06849         0.000000     -0.013668     -0.000000
      9.35407      1.27543      4.29762         0.000000     -0.013668     -0.000000
      4.10610      6.54161      4.06849         0.000000     -0.013668     -0.000000
      9.35407      6.54161      4.29762         0.000000     -0.013668     -0.000000
      1.48212      3.92309      3.95392         0.000000     -0.012183     -0.000000
      6.73009      3.92309      4.18306         0.000000     -0.012183     -0.000000
      1.48212      9.18928      3.95392         0.000000     -0.012183     -0.000000
      6.73009      9.18928      4.18306         0.000000     -0.012183     -0.000000
     10.69711      0.04720      5.65322         0.009057      0.020382     -0.017507
      5.44915      0.04720      5.42409         0.009057      0.020382     -0.017507
     10.69711      5.31338      5.65322         0.009057      0.020382     -0.017507
      5.44915      5.31338      5.42409         0.009057      0.020382     -0.017507
      2.76306      0.04720      2.71289        -0.009057      0.020382      0.017507
      8.01103      0.04720      2.94202        -0.009057      0.020382      0.017507
      2.76306      5.31338      2.71289        -0.009057      0.020382      0.017507
      8.01103      5.31338      2.94202        -0.009057      0.020382      0.017507
      2.59832      2.68029      0.11401         0.009057      0.020382     -0.017507
      7.84629      2.68029      0.34314         0.009057      0.020382     -0.017507
      2.59832      7.94647      0.11401         0.009057      0.020382     -0.017507
      7.84629      7.94647      0.34314         0.009057      0.020382     -0.017507
      0.36592      2.68029      7.79384        -0.009057      0.020382      0.017507
      5.61388      2.68029      8.02298        -0.009057      0.020382      0.017507
      0.36592      7.94647      7.79384        -0.009057      0.020382      0.017507
      5.61388      7.94647      8.02298        -0.009057      0.020382      0.017507
     10.47998      0.04731      0.46910         0.015570      0.018883     -0.040372
      5.23202      0.04731      0.23997         0.015570      0.018883     -0.040372
     10.47998      5.31349      0.46910         0.015570      0.018883     -0.040372
      5.23202      5.31349      0.23997         0.015570      0.018883     -0.040372
      2.98019      0.04731      7.89701        -0.015570      0.018883      0.040372
      8.22815      0.04731      8.12614        -0.015570      0.018883      0.040372
      2.98019      5.31349      7.89701        -0.015570      0.018883      0.040372
      8.22815      5.31349      8.12614        -0.015570      0.018883      0.040372
      2.83488      2.68040      5.32093         0.015570      0.018883     -0.040372
      8.08284      2.68040      5.55006         0.015570      0.018883     -0.040372
      2.83488      7.94658      5.32093         0.015570      0.018883     -0.040372
      8.08284      7.94658      5.55006         0.015570      0.018883     -0.040372
      0.12936      2.68040      2.58692        -0.015570      0.018883      0.040372
      5.37733      2.68040      2.81606        -0.015570      0.018883      0.040372
      0.12936      7.94658      2.58692        -0.015570      0.018883      0.040372
      5.37733      7.94658      2.81606        -0.015570      0.018883      0.040372
 -----------------------------------------------------------------------------------
    total drift:                               -0.000006      0.012886     -0.000255


--------------------------------------------------------------------------------------------------------



  FREE ENERGIE OF THE ION-ELECTRON SYSTEM (eV)
  ---------------------------------------------------
  free  energy   TOTEN  =      -327.30348092 eV

  energy  without entropy=     -327.30348092  energy(sigma->0) =     -327.30348092
 


--------------------------------------------------------------------------------------------------------


    POTLOK:  cpu time    0.1322: real time    0.1328


--------------------------------------------------------------------------------------------------------


 writing wavefunctions
     LOOP+:  cpu time 3686.2286: real time 3712.5421
    4ORBIT:  cpu time    0.0000: real time    0.0000
 


 total charge     
 
# of ion       s       p       d       tot
------------------------------------------
    1        1.314   2.409   0.000   3.723
    2        1.314   2.409   0.000   3.723
    3        1.314   2.409   0.000   3.723
    4        1.314   2.409   0.000   3.723
    5        1.314   2.409   0.000   3.723
    6        1.314   2.409   0.000   3.723
    7        1.314   2.409   0.000   3.723
    8        1.314   2.409   0.000   3.723
    9        1.316   2.403   0.000   3.719
   10        1.316   2.403   0.000   3.719
   11        1.316   2.403   0.000   3.719
   12        1.316   2.403   0.000   3.719
   13        1.313   2.411   0.000   3.724
   14        1.313   2.411   0.000   3.724
   15        1.313   2.411   0.000   3.724
   16        1.313   2.411   0.000   3.724
   17        1.314   2.409   0.000   3.723
   18        1.314   2.409   0.000   3.723
   19        1.314   2.409   0.000   3.723
   20        1.314   2.409   0.000   3.723
   21        1.314   2.409   0.000   3.723
   22        1.314   2.409   0.000   3.723
   23        1.314   2.409   0.000   3.723
   24        1.314   2.409   0.000   3.723
   25        1.316   2.403   0.000   3.719
   26        1.316   2.403   0.000   3.719
   27        1.316   2.403   0.000   3.719
   28        1.316   2.403   0.000   3.719
   29        1.313   2.411   0.000   3.724
   30        1.313   2.411   0.000   3.724
   31        1.313   2.411   0.000   3.724
   32        1.313   2.411   0.000   3.724
   33        0.259   6.201   8.917  15.377
   34        0.259   6.201   8.917  15.377
   35        0.259   6.201   8.917  15.377
   36        0.259   6.201   8.917  15.377
   37        0.259   6.201   8.917  15.377
   38        0.259   6.201   8.917  15.377
   39        0.259   6.201   8.917  15.377
   40        0.259   6.201   8.917  15.377
   41        0.259   6.201   8.917  15.377
   42        0.259   6.201   8.917  15.377
   43        0.259   6.201   8.917  15.377
   44        0.259   6.201   8.917  15.377
   45        0.259   6.201   8.917  15.377
   46        0.259   6.201   8.917  15.377
   47        0.259   6.201   8.917  15.377
   48        0.259   6.201   8.917  15.377
   49        0.349   6.349   5.823  12.521
   50        0.349   6.349   5.823  12.521
   51        0.349   6.349   5.823  12.521
   52        0.349   6.349   5.823  12.521
   53        0.349   6.349   5.823  12.521
   54        0.349   6.349   5.823  12.521
   55        0.349   6.349   5.823  12.521
   56        0.349   6.349   5.823  12.521
   57        0.349   6.349   5.823  12.521
   58        0.349   6.349   5.823  12.521
   59        0.349   6.349   5.823  12.521
   60        0.349   6.349   5.823  12.521
   61        0.349   6.349   5.823  12.521
   62        0.349   6.349   5.823  12.521
   63        0.349   6.349   5.823  12.521
   64        0.349   6.349   5.823  12.521
--------------------------------------------------
tot         51.781 277.861 235.838 565.480
 


 magnetization (x)
 
# of ion       s       p       d       tot
------------------------------------------
    1       -0.000  -0.021   0.000  -0.021
    2       -0.000  -0.021   0.000  -0.021
    3       -0.000  -0.021   0.000  -0.021
    4       -0.000  -0.021   0.000  -0.021
    5        0.000   0.021   0.000   0.021
    6        0.000   0.021   0.000   0.021
    7        0.000   0.021   0.000   0.021
    8        0.000   0.021   0.000   0.021
    9       -0.000   0.000   0.000   0.000
   10       -0.000   0.000   0.000   0.000
   11       -0.000   0.000   0.000   0.000
   12       -0.000   0.000   0.000   0.000
   13        0.000  -0.000   0.000  -0.000
   14        0.000  -0.000   0.000  -0.000
   15        0.000  -0.000   0.000  -0.000
   16        0.000  -0.000   0.000  -0.000
   17        0.000   0.021   0.000   0.021
   18        0.000   0.021   0.000   0.021
   19        0.000   0.021   0.000   0.021
   20        0.000   0.021   0.000   0.021
   21       -0.000  -0.021   0.000  -0.021
   22       -0.000  -0.021   0.000  -0.021
   23       -0.000  -0.021   0.000  -0.021
   24       -0.000  -0.021   0.000  -0.021
   25       -0.000   0.000   0.000   0.000
   26       -0.000   0.000   0.000   0.000
   27       -0.000   0.000   0.000   0.000
   28       -0.000   0.000   0.000   0.000
   29        0.000  -0.000   0.000  -0.000
   30        0.000  -0.000   0.000  -0.000
   31        0.000  -0.000   0.000  -0.000
   32        0.000  -0.000   0.000  -0.000
   33        0.000   0.001  -0.003  -0.002
   34        0.000   0.001  -0.003  -0.002
   35        0.000   0.001  -0.003  -0.002
   36        0.000   0.001  -0.003  -0.002
   37       -0.000  -0.001   0.003   0.002
   38       -0.000  -0.001   0.003   0.002
   39       -0.000  -0.001   0.003   0.002
   40       -0.000  -0.001   0.003   0.002
   41        0.000   0.001  -0.003  -0.002
   42        0.000   0.001  -0.003  -0.002
   43        0.000   0.001  -0.003  -0.002
   44        0.000   0.001  -0.003  -0.002
   45       -0.000  -0.001   0.003   0.002
   46       -0.000  -0.001   0.003   0.002
   47       -0.000  -0.001   0.003   0.002
   48       -0.000  -0.001   0.003   0.002
   49        0.020   0.054   3.666   3.739
   50        0.020   0.054   3.666   3.739
   51        0.020   0.054   3.666   3.739
   52        0.020   0.054   3.666   3.739
   53       -0.020  -0.054  -3.666  -3.739
   54       -0.020  -0.054  -3.666  -3.739
   55       -0.020  -0.054  -3.666  -3.739
   56       -0.020  -0.054  -3.666  -3.739
   57        0.020   0.054   3.666   3.739
   58        0.020   0.054   3.666   3.739
   59        0.020   0.054   3.666   3.739
   60        0.020   0.054   3.666   3.739
   61       -0.020  -0.054  -3.666  -3.739
   62       -0.020  -0.054  -3.666  -3.739
   63       -0.020  -0.054  -3.666  -3.739
   64       -0.020  -0.054  -3.666  -3.739
--------------------------------------------------
tot         -0.000  -0.000   0.000  -0.000
 
 BZINTS: Fermi energy:  4.963227;688.000000 electrons
         Band energy:***********;  BLOECHL correction:  0.000000

 total amount of memory used by VASP MPI-rank0   348353. kBytes
=======================================================================

   base      :      30000. kBytes
   nonl-proj :     216760. kBytes
   fftplans  :       4588. kBytes
   grid      :      69719. kBytes
   one-center:       1990. kBytes
   wavefun   :      25296. kBytes
 
  
  
 General timing and accounting informations for this job:
 ========================================================
  
                  Total CPU time used (sec):     3745.784
                            User time (sec):     3734.046
                          System time (sec):       11.738
                         Elapsed time (sec):     3773.704
  
                   Maximum memory used (kb):      709880.
                   Average memory used (kb):           0.
  
                          Minor page faults:       683421
                          Major page faults:         5561
                 Voluntary context switches:         7056
