 vasp.5.4.4.18Apr17-6-g9f103f2a35 (build Oct 30 2023 17:30:16) complex          
  
 executed on             LinuxIFC date 2024.06.29  00:51:34
 running on  256 total cores
 distrk:  each k-point on  256 cores,    1 groups
 distr:  one band on NCORES_PER_BAND=   1 cores,  256 groups


--------------------------------------------------------------------------------------------------------


 INCAR:
 POTCAR:    PAW_PBE S 06Sep2000                   
 POTCAR:     PAW_PBE Cu_pv 06Sep2000              
 POTCAR:     PAW_PBE Fe_pv 02Aug2007              

 ----------------------------------------------------------------------------- 
|                                                                             |
|           W    W    AA    RRRRR   N    N  II  N    N   GGGG   !!!           |
|           W    W   A  A   R    R  NN   N  II  NN   N  G    G  !!!           |
|           W    W  A    A  R    R  N N  N  II  N N  N  G       !!!           |
|           W WW W  AAAAAA  RRRRR   N  N N  II  N  N N  G  GGG   !            |
|           WW  WW  A    A  R   R   N   NN  II  N   NN  G    G                |
|           W    W  A    A  R    R  N    N  II  N    N   GGGG   !!!           |
|                                                                             |
|      For optimal performance we recommend to set                            |
|        NCORE= 4 - approx SQRT( number of cores)                             |
|      NCORE specifies how many cores store one orbital (NPAR=cpu/NCORE).     |
|      This setting can  greatly improve the performance of VASP for DFT.     |
|      The default,   NCORE=1            might be grossly inefficient         |
|      on modern multi-core architectures or massively parallel machines.     |
|      Do your own testing !!!!                                               |
|      Unfortunately you need to use the default for GW and RPA calculations. |
|      (for HF NCORE is supported but not extensively tested yet)             |
|                                                                             |
 ----------------------------------------------------------------------------- 

 POTCAR:    PAW_PBE S 06Sep2000                   
   SHA256 =  0fc7481fb0695f01bdc6462160264c5c84044ae9ec85a907d398b887a2bc3132 S/
   COPYR  = (c) Copyright 06Sep2000 Georg Kresse                                
   COPYR  = This file is part of the software VASP. Any use, copying, and all ot
   COPYR  = If you do not have a valid VASP license, you may not use, copy or di
   VRHFIN =S : s2p4                                                             
   LEXCH  = PE                                                                  
   EATOM  =   276.8230 eV,   20.3459 Ry                                         
                                                                                
   TITEL  = PAW_PBE S 06Sep2000                                                 
   LULTRA =        F    use ultrasoft PP ?                                      
   IUNSCR =        1    unscreen: 0-lin 1-nonlin 2-no                           
   RPACOR =    1.500    partial core radius                                     
   POMASS =   32.066; ZVAL   =    6.000    mass and valenz                      
   RCORE  =    1.900    outmost cutoff radius                                   
   RWIGS  =    2.200; RWIGS  =    1.164    wigner-seitz radius (au A)           
   ENMAX  =  258.689; ENMIN  =  194.016 eV                                      
   ICORE  =        2    local potential                                         
   LCOR   =        T    correct aug charges                                     
   LPAW   =        T    paw PP                                                  
   EAUG   =  335.092                                                            
   DEXC   =    0.000                                                            
   RMAX   =    1.942    core radius for proj-oper                               
   RAUG   =    1.300    factor for augmentation sphere                          
   RDEP   =    1.954    radius for radial grids                                 
   RDEPT  =    1.744    core radius for aug-charge                              
                                                                                
   Atomic configuration                                                         
    6 entries                                                                   
     n  l   j            E        occ.                                          
     1  0  0.50     -2405.8406   2.0000                                         
     2  0  0.50      -211.7007   2.0000                                         
     2  1  1.50      -156.4958   6.0000                                         
     3  0  0.50       -17.2562   2.0000                                         
     3  1  0.50        -7.0085   4.0000                                         
     3  2  1.50        -6.8029   0.0000                                         
   Description                                                                  
     l       E           TYP  RCUT    TYP  RCUT                                 
     0    -17.2561641     23  1.900                                             
     0    -15.8743224     23  1.900                                             
     1     -7.0085400     23  1.900                                             
     1     -2.7779785     23  1.900                                             
     2     -6.8029130     23  1.900                                             
  local pseudopotential read in
  partial core-charges read in
  partial kinetic energy density read in
  atomic valenz-charges read in
  non local Contribution for L=           0  read in
    real space projection operators read in
  non local Contribution for L=           0  read in
    real space projection operators read in
  non local Contribution for L=           1  read in
    real space projection operators read in
  non local Contribution for L=           1  read in
    real space projection operators read in
    PAW grid and wavefunctions read in
 
   number of l-projection  operators is LMAX  =           4
   number of lm-projection operators is LMMAX =           8
 
 POTCAR:     PAW_PBE Cu_pv 06Sep2000              
   SHA256 =  cb7b504e2ea725fe1f25c85a9ac77d4012ce94cd394135b722c4e25ec297f1cb Cu
   COPYR  = (c) Copyright 06Sep2000 Georg Kresse                                
   COPYR  = This file is part of the software VASP. Any use, copying, and all ot
   COPYR  = If you do not have a valid VASP license, you may not use, copy or di
   VRHFIN =Cu: d10 p1                                                           
   LEXCH  = PE                                                                  
   EATOM  =  4120.1201 eV,  302.8203 Ry                                         
                                                                                
   TITEL  = PAW_PBE Cu_pv 06Sep2000                                             
   LULTRA =        F    use ultrasoft PP ?                                      
   IUNSCR =        1    unscreen: 0-lin 1-nonlin 2-no                           
   RPACOR =    1.500    partial core radius                                     
   POMASS =   63.546; ZVAL   =   17.000    mass and valenz                      
   RCORE  =    2.000    outmost cutoff radius                                   
   RWIGS  =    2.000; RWIGS  =    1.058    wigner-seitz radius (au A)           
   ENMAX  =  368.648; ENMIN  =  276.486 eV                                      
   RCLOC  =    1.304    cutoff for local pot                                    
   LCOR   =        T    correct aug charges                                     
   LPAW   =        T    paw PP                                                  
   EAUG   =  758.233                                                            
   DEXC   =    0.000                                                            
   RMAX   =    2.046    core radius for proj-oper                               
   RAUG   =    1.300    factor for augmentation sphere                          
   RDEP   =    2.025    radius for radial grids                                 
   RDEPT  =    1.558    core radius for aug-charge                              
                                                                                
   Atomic configuration                                                         
    8 entries                                                                   
     n  l   j            E        occ.                                          
     1  0  0.50     -8850.2467   2.0000                                         
     2  0  0.50     -1062.3498   2.0000                                         
     2  1  1.50      -916.8226   6.0000                                         
     3  0  0.50      -114.6929   2.0000                                         
     3  1  1.50       -72.1325   6.0000                                         
     3  2  2.50        -5.0394  10.0000                                         
     4  0  0.50        -4.6097   1.0000                                         
     4  3  2.50        -1.3606   0.0000                                         
   Description                                                                  
     l       E           TYP  RCUT    TYP  RCUT                                 
     1    -72.1324777     23  1.700                                             
     1     -1.3605826     23  1.700                                             
     2     -5.0393776     23  2.000                                             
     2     -6.3999602     23  2.000                                             
     0     -4.6097062     23  1.800                                             
     0     14.1620818     23  1.800                                             
  local pseudopotential read in
  partial core-charges read in
  partial kinetic energy density read in
  atomic valenz-charges read in
  non local Contribution for L=           1  read in
    real space projection operators read in
  non local Contribution for L=           1  read in
    real space projection operators read in
  non local Contribution for L=           2  read in
    real space projection operators read in
  non local Contribution for L=           2  read in
    real space projection operators read in
  non local Contribution for L=           0  read in
    real space projection operators read in
  non local Contribution for L=           0  read in
    real space projection operators read in
    PAW grid and wavefunctions read in
 
   number of l-projection  operators is LMAX  =           6
   number of lm-projection operators is LMMAX =          18
 
 POTCAR:     PAW_PBE Fe_pv 02Aug2007              
   SHA256 =  5d22e414b1f82158bf2c7ecb8b97b28fd0923e48cadc1c3bf74d524558f5dd32 Fe
   COPYR  = (c) Copyright 02Aug2007 Georg Kresse                                
   COPYR  = This file is part of the software VASP. Any use, copying, and all ot
   COPYR  = If you do not have a valid VASP license, you may not use, copy or di
   VRHFIN =Fe:  3pd7s1                                                          
   LEXCH  = PE                                                                  
   EATOM  =  2457.4239 eV,  180.6156 Ry                                         
                                                                                
   TITEL  = PAW_PBE Fe_pv 02Aug2007                                             
   LULTRA =        F    use ultrasoft PP ?                                      
   IUNSCR =        1    unscreen: 0-lin 1-nonlin 2-no                           
   RPACOR =    1.750    partial core radius                                     
   POMASS =   55.847; ZVAL   =   14.000    mass and valenz                      
   RCORE  =    2.200    outmost cutoff radius                                   
   RWIGS  =    2.200; RWIGS  =    1.164    wigner-seitz radius (au A)           
   ENMAX  =  293.238; ENMIN  =  219.928 eV                                      
   ICORE  =        3    local potential                                         
   LCOR   =        T    correct aug charges                                     
   LPAW   =        T    paw PP                                                  
   EAUG   =  578.342                                                            
   DEXC   =    0.000                                                            
   RMAX   =    2.249    core radius for proj-oper                               
   RAUG   =    1.300    factor for augmentation sphere                          
   RDEP   =    2.296    radius for radial grids                                 
   RDEPT  =    1.766    core radius for aug-charge                              
                                                                                
   Atomic configuration                                                         
    8 entries                                                                   
     n  l   j            E        occ.                                          
     1  0  0.50     -6993.8440   2.0000                                         
     2  0  0.50      -814.6047   2.0000                                         
     2  1  1.50      -693.3689   6.0000                                         
     3  0  0.50       -89.4732   2.0000                                         
     3  1  1.50       -55.6373   6.0000                                         
     3  2  2.50        -3.8151   7.0000                                         
     4  0  0.50        -4.2551   1.0000                                         
     4  3  2.50        -1.3606   0.0000                                         
   Description                                                                  
     l       E           TYP  RCUT    TYP  RCUT                                 
     1    -55.6372668     23  2.000                                             
     1     -5.4423304     23  2.000                                             
     2     -3.8151096     23  2.200                                             
     2     -5.1756922     23  2.200                                             
     0     -4.2550951     23  2.200                                             
     0     27.2116520     23  2.200                                             
     3     -1.3605826     23  2.200                                             
  local pseudopotential read in
  partial core-charges read in
  partial kinetic energy density read in
  atomic valenz-charges read in
  non local Contribution for L=           1  read in
    real space projection operators read in
  non local Contribution for L=           1  read in
    real space projection operators read in
  non local Contribution for L=           2  read in
    real space projection operators read in
  non local Contribution for L=           2  read in
    real space projection operators read in
  non local Contribution for L=           0  read in
    real space projection operators read in
  non local Contribution for L=           0  read in
    real space projection operators read in
    PAW grid and wavefunctions read in
 
   number of l-projection  operators is LMAX  =           6
   number of lm-projection operators is LMMAX =          18
 

 ----------------------------------------------------------------------------- 
|                                                                             |
|  ADVICE TO THIS USER RUNNING 'VASP/VAMP'   (HEAR YOUR MASTER'S VOICE ...):  |
|                                                                             |
|      You have a (more or less) 'large supercell' and for larger cells       |
|      it might be more efficient to use real space projection opertators     |
|      So try LREAL= Auto  in the INCAR   file.                               |
|      Mind:          For very  accurate calculation you might also keep the  |
|      reciprocal projection scheme          (i.e. LREAL=.FALSE.)             |
|                                                                             |
 ----------------------------------------------------------------------------- 


 ----------------------------------------------------------------------------- 
|                                                                             |
|  ADVICE TO THIS USER RUNNING 'VASP/VAMP'   (HEAR YOUR MASTER'S VOICE ...):  |
|                                                                             |
|      You enforced a specific xc-type in the INCAR file,                     |
|      a different type was found on the POTCAR file                          |
|          I HOPE YOU KNOW, WHAT YOU ARE  DOING                               |
|                                                                             |
 ----------------------------------------------------------------------------- 

  PAW_PBE S 06Sep2000                   :
 energy of atom  1       EATOM= -276.8230
 kinetic energy error for atom=    0.0007 (will be added to EATOM!!)
   PAW_PBE Cu_pv 06Sep2000              :
 energy of atom  2       EATOM=-4120.1201
 kinetic energy error for atom=    0.0094 (will be added to EATOM!!)
   PAW_PBE Fe_pv 02Aug2007              :
 energy of atom  3       EATOM=-2457.4239
 kinetic energy error for atom=    0.0025 (will be added to EATOM!!)
 
 
 POSCAR: Fe16 Cu16 S32                           
  positions in direct lattice
  No initial velocities read in
 exchange correlation table for  LEXCH =       14
   RHO(1)=    0.500       N(1)  =     2000
   RHO(2)=  100.500       N(2)  =     4000
 


--------------------------------------------------------------------------------------------------------


 ion  position               nearest neighbor table
   1  0.126  0.126  0.120-  37 2.25  61 2.27  41 2.28  49 2.29
   2  0.626  0.126  0.120-  38 2.25  62 2.27  42 2.28  50 2.29
   3  0.126  0.626  0.120-  39 2.25  63 2.27  43 2.28  51 2.29
   4  0.626  0.626  0.120-  40 2.25  64 2.27  44 2.28  52 2.29
   5  0.374  0.374  0.120-  39 2.25  62 2.27  41 2.28  52 2.29
   6  0.874  0.374  0.120-  40 2.25  61 2.27  42 2.28  51 2.29
   7  0.374  0.874  0.120-  37 2.25  64 2.27  43 2.28  50 2.29
   8  0.874  0.874  0.120-  38 2.25  63 2.27  44 2.28  49 2.29
   9  0.124  0.374  0.870-  41 2.25  51 2.27  45 2.28  55 2.29
  10  0.624  0.374  0.870-  42 2.25  52 2.27  46 2.28  56 2.29
  11  0.124  0.874  0.870-  43 2.25  49 2.27  47 2.28  53 2.29
  12  0.624  0.874  0.870-  44 2.25  50 2.27  48 2.28  54 2.29
  13  0.376  0.126  0.870-  41 2.25  50 2.27  46 2.28  53 2.29
  14  0.876  0.126  0.870-  42 2.25  49 2.27  45 2.28  54 2.29
  15  0.376  0.626  0.870-  43 2.25  52 2.27  48 2.28  55 2.29
  16  0.876  0.626  0.870-  44 2.25  51 2.27  47 2.28  56 2.29
  17  0.124  0.124  0.620-  45 2.25  53 2.27  33 2.28  57 2.29
  18  0.624  0.124  0.620-  46 2.25  54 2.27  34 2.28  58 2.29
  19  0.124  0.624  0.620-  47 2.25  55 2.27  35 2.28  59 2.29
  20  0.624  0.624  0.620-  48 2.25  56 2.27  36 2.28  60 2.29
  21  0.376  0.376  0.620-  46 2.25  55 2.27  36 2.28  57 2.29
  22  0.876  0.376  0.620-  45 2.25  56 2.27  35 2.28  58 2.29
  23  0.376  0.876  0.620-  48 2.25  53 2.27  34 2.28  59 2.29
  24  0.876  0.876  0.620-  47 2.25  54 2.27  33 2.28  60 2.29
  25  0.374  0.124  0.370-  34 2.25  57 2.27  37 2.28  62 2.29
  26  0.874  0.124  0.370-  33 2.25  58 2.27  38 2.28  61 2.29
  27  0.374  0.624  0.370-  36 2.25  59 2.27  39 2.28  64 2.29
  28  0.874  0.624  0.370-  35 2.25  60 2.27  40 2.28  63 2.29
  29  0.126  0.376  0.370-  35 2.25  57 2.27  39 2.28  61 2.29
  30  0.626  0.376  0.370-  36 2.25  58 2.27  40 2.28  62 2.29
  31  0.126  0.876  0.370-  33 2.25  59 2.27  37 2.28  63 2.29
  32  0.626  0.876  0.370-  34 2.25  60 2.27  38 2.28  64 2.29
  33  0.000  0.000  0.505-  26 2.25  31 2.25  17 2.28  24 2.28
  34  0.500  0.000  0.505-  25 2.25  32 2.25  18 2.28  23 2.28
  35  0.000  0.500  0.505-  28 2.25  29 2.25  19 2.28  22 2.28
  36  0.500  0.500  0.505-  27 2.25  30 2.25  20 2.28  21 2.28
  37  0.250  0.000  0.255-   1 2.25   7 2.25  25 2.28  31 2.28
  38  0.750  0.000  0.255-   2 2.25   8 2.25  26 2.28  32 2.28
  39  0.250  0.500  0.255-   3 2.25   5 2.25  27 2.28  29 2.28
  40  0.750  0.500  0.255-   4 2.25   6 2.25  28 2.28  30 2.28
  41  0.250  0.250  0.005-   9 2.25  13 2.25   1 2.28   5 2.28
  42  0.750  0.250  0.005-  10 2.25  14 2.25   2 2.28   6 2.28
  43  0.250  0.750  0.005-  11 2.25  15 2.25   3 2.28   7 2.28
  44  0.750  0.750  0.005-  12 2.25  16 2.25   4 2.28   8 2.28
  45  0.000  0.250  0.755-  17 2.25  22 2.25   9 2.28  14 2.28
  46  0.500  0.250  0.755-  18 2.25  21 2.25  10 2.28  13 2.28
  47  0.000  0.750  0.755-  19 2.25  24 2.25  11 2.28  16 2.28
  48  0.500  0.750  0.755-  20 2.25  23 2.25  12 2.28  15 2.28
  49  0.000  0.000  0.006-  11 2.27  14 2.27   1 2.29   8 2.29
  50  0.500  0.000  0.006-  12 2.27  13 2.27   2 2.29   7 2.29
  51  0.000  0.500  0.006-   9 2.27  16 2.27   3 2.29   6 2.29
  52  0.500  0.500  0.006-  10 2.27  15 2.27   4 2.29   5 2.29
  53  0.250  0.000  0.756-  17 2.27  23 2.27  11 2.29  13 2.29
  54  0.750  0.000  0.756-  18 2.27  24 2.27  12 2.29  14 2.29
  55  0.250  0.500  0.756-  19 2.27  21 2.27   9 2.29  15 2.29
  56  0.750  0.500  0.756-  20 2.27  22 2.27  10 2.29  16 2.29
  57  0.250  0.250  0.506-  25 2.27  29 2.27  17 2.29  21 2.29
  58  0.750  0.250  0.506-  26 2.27  30 2.27  18 2.29  22 2.29
  59  0.250  0.750  0.506-  27 2.27  31 2.27  19 2.29  23 2.29
  60  0.750  0.750  0.506-  28 2.27  32 2.27  20 2.29  24 2.29
  61  0.000  0.250  0.256-   1 2.27   6 2.27  26 2.29  29 2.29
  62  0.500  0.250  0.256-   2 2.27   5 2.27  25 2.29  30 2.29
  63  0.000  0.750  0.256-   3 2.27   8 2.27  28 2.29  31 2.29
  64  0.500  0.750  0.256-   4 2.27   7 2.27  27 2.29  32 2.29
 
  LATTYP: Found a base centered orthorhombic cell.
 ALAT       =    14.1142360186
 B/A-ratio  =     1.1028537098
 C/A-ratio  =     0.7393479878
  
  Lattice vectors:
  
 A1 = (  10.4935260000,   0.5132540000,   0.0000000000)
 A2 = (  -0.5132540000, -10.4935260000,   0.0000000000)
 A3 = (   0.0000000000,   0.0000000000, -10.4353320000)


Analysis of symmetry for initial positions (statically):
=====================================================================
 Subroutine PRICEL returns following result:
 
  LATTYP: Found a face centered orthorhombic cell.
 ALAT       =     7.0571180093
 B/A-ratio  =     1.1028537098
 C/A-ratio  =     1.4786959756
  
  Lattice vectors:
  
 A1 = (  -2.7516950000,  -2.7516950000,   5.2176660000)
 A2 = (  -2.4950680000,   2.4950680000,   5.2176660000)
 A3 = (  -5.2467630000,  -0.2566270000,  -0.0000000000)
 
   8 primitive cells build up your supercell.
 

 Routine SETGRP: Setting up the symmetry group for a 
 base centered orthorhombic supercell.


 Subroutine GETGRP returns: Found  4 space group operations
 (whereof  2 operations were pure point group operations)
 out of a pool of  8 trial point group operations.


The static configuration has the point symmetry C_2 .
 The point group associated with its full space group is C_2v.


Analysis of symmetry for dynamics (positions and initial velocities):
=====================================================================
 Subroutine PRICEL returns following result:
 
  LATTYP: Found a face centered orthorhombic cell.
 ALAT       =     7.0571180093
 B/A-ratio  =     1.1028537098
 C/A-ratio  =     1.4786959756
  
  Lattice vectors:
  
 A1 = (  -2.7516950000,  -2.7516950000,   5.2176660000)
 A2 = (  -2.4950680000,   2.4950680000,   5.2176660000)
 A3 = (  -5.2467630000,  -0.2566270000,  -0.0000000000)
 
   8 primitive cells build up your supercell.
 

 Routine SETGRP: Setting up the symmetry group for a 
 base centered orthorhombic supercell.


 Subroutine GETGRP returns: Found  4 space group operations
 (whereof  2 operations were pure point group operations)
 out of a pool of  8 trial point group operations.


The dynamic configuration has the point symmetry C_2 .
 The point group associated with its full space group is C_2v.


Analysis of structural, dynamic, and magnetic symmetry:
=====================================================================
 Subroutine PRICEL returns following result:
 
  LATTYP: Found a face centered orthorhombic cell.
 ALAT       =     7.0571180093
 B/A-ratio  =     1.1028537098
 C/A-ratio  =     1.4786959756
  
  Lattice vectors:
  
 A1 = (  -2.7516950000,  -2.7516950000,   5.2176660000)
 A2 = (  -2.4950680000,   2.4950680000,   5.2176660000)
 A3 = (  -5.2467630000,  -0.2566270000,  -0.0000000000)
 
   8 primitive cells build up your supercell.
 

 Routine SETGRP: Setting up the symmetry group for a 
 base centered orthorhombic supercell.


 Subroutine GETGRP returns: Found  4 space group operations
 (whereof  2 operations were pure point group operations)
 out of a pool of  8 trial point group operations.


The magnetic configuration has the point symmetry C_2 .
 The point group associated with its full space group is C_2v.


 Subroutine INISYM returns: Found  4 space group operations
 (whereof  2 operations are pure point group operations),
 and found     8 'primitive' translations

 
 
 KPOINTS: Automatic mesh                          

Automatic generation of k-mesh.
Space group operators:
 irot       det(A)        alpha          n_x          n_y          n_z        tau_x        tau_y        tau_z
    1     1.000000     0.000000     1.000000     0.000000     0.000000     0.000000     0.000000     0.000000
    2     1.000000   180.000000     0.000000     0.000000     1.000000     0.000000     0.000000     0.000000
    3    -1.000000   180.000000     0.707107     0.707107     0.000000    -0.750000     0.000000     0.750000
    4    -1.000000   180.000000     0.707107    -0.707107     0.000000    -0.750000     0.000000     0.750000
 
 Subroutine IBZKPT returns following result:
 ===========================================
 
 Found      6 irreducible k-points:
 
 Following reciprocal coordinates:
            Coordinates               Weight
  0.000000  0.000000  0.000000      1.000000
  0.500000  0.000000  0.000000      2.000000
  0.500000  0.500000  0.000000      1.000000
  0.000000  0.000000  0.500000      1.000000
  0.500000  0.000000  0.500000      2.000000
  0.500000  0.500000  0.500000      1.000000
 
 Following cartesian coordinates:
            Coordinates               Weight
  0.000000  0.000000  0.000000      1.000000
  0.047763 -0.002336  0.000000      2.000000
  0.045427  0.045427  0.000000      1.000000
  0.000000  0.000000  0.047914      1.000000
  0.047763 -0.002336  0.047914      2.000000
  0.045427  0.045427  0.047914      1.000000
 
 TETIRR: Found     12 inequivalent tetrahedra from       48
 
 Subroutine IBZKPT_HF returns following result:
 ==============================================
 
 Found      8 k-points in 1st BZ
 the following      8 k-points will be used (e.g. in the exchange kernel)
 Following reciprocal coordinates:   # in IRBZ
  0.000000  0.000000  0.000000    0.12500000   1 t-inv F
  0.500000  0.000000  0.000000    0.12500000   2 t-inv F
  0.500000  0.500000  0.000000    0.12500000   3 t-inv F
  0.000000  0.000000  0.500000    0.12500000   4 t-inv F
  0.500000  0.000000  0.500000    0.12500000   5 t-inv F
  0.500000  0.500000  0.500000    0.12500000   6 t-inv F
  0.000000 -0.500000  0.000000    0.12500000   2 t-inv F spinflp
  0.000000 -0.500000  0.500000    0.12500000   5 t-inv F spinflp


--------------------------------------------------------------------------------------------------------




 Dimension of arrays:
   k-points           NKPTS =      6   k-points in BZ     NKDIM =      6   number of bands    NBANDS=    512
   number of dos      NEDOS =    301   number of ions     NIONS =     64
   non local maximal  LDIM  =      6   non local SUM 2l+1 LMDIM =     18
   total plane-waves  NPLWV = 829440
   max r-space proj   IRMAX =      1   max aug-charges    IRDMAX=  22993
   dimension x,y,z NGX =    96 NGY =   96 NGZ =   90
   dimension x,y,z NGXF=   192 NGYF=  192 NGZF=  180
   support grid    NGXF=   192 NGYF=  192 NGZF=  180
   ions per type =              32  16  16
   NGX,Y,Z   is equivalent  to a cutoff of  15.19, 15.19, 14.34 a.u.
   NGXF,Y,Z  is equivalent  to a cutoff of  30.38, 30.38, 28.68 a.u.

 SYSTEM =  CuFeS2                                  
 POSCAR =  Fe16 Cu16 S32                           

 Startparameter for this run:
   NWRITE =      2    write-flag & timer
   PREC   = accura    normal or accurate (medium, high low for compatibility)
   ISTART =      0    job   : 0-new  1-cont  2-samecut
   ICHARG =      1    charge: 1-file 2-atom 10-const
   ISPIN  =      2    spin polarized calculation?
   LNONCOLLINEAR =      F non collinear calculations
   LSORBIT =      F    spin-orbit coupling
   INIWAV =      1    electr: 0-lowe 1-rand  2-diag
   LASPH  =      F    aspherical Exc in radial PAW
   METAGGA=      F    non-selfconsistent MetaGGA calc.

 Electronic Relaxation 1
   ENCUT  =  700.0 eV  51.45 Ry    7.17 a.u.  22.66 22.66 22.51*2*pi/ulx,y,z
   ENINI  =  700.0     initial cutoff
   ENAUG  =  758.2 eV  augmentation charge cutoff
   NELM   =    500;   NELMIN=  2; NELMDL=  0     # of ELM steps 
   EDIFF  = 0.1E-07   stopping-criterion for ELM
   LREAL  =      F    real-space projection
   NLSPLINE    = F    spline interpolate recip. space projectors
   LCOMPAT=      F    compatible to vasp.4.4
   GGA_COMPAT  = T    GGA compatible to vasp.4.4-vasp.4.6
   LMAXPAW     = -100 max onsite density
   LMAXMIX     =    4 max onsite mixed and CHGCAR
   VOSKOWN=      0    Vosko Wilk Nusair interpolation
   ROPT   =    0.00000   0.00000   0.00000
 Ionic relaxation
   EDIFFG = -.1E-04   stopping-criterion for IOM
   NSW    =      0    number of steps for IOM
   NBLOCK =      1;   KBLOCK =      1    inner block; outer block 
   IBRION =     -1    ionic relax: 0-MD 1-quasi-New 2-CG
   NFREE  =      0    steps in history (QN), initial steepest desc. (CG)
   ISIF   =      2    stress and relaxation
   IWAVPR =     10    prediction:  0-non 1-charg 2-wave 3-comb
   ISYM   =      2    0-nonsym 1-usesym 2-fastsym
   LCORR  =      T    Harris-Foulkes like correction to forces

   POTIM  = 0.5000    time-step for ionic-motion
   TEIN   =    0.0    initial temperature
   TEBEG  =    0.0;   TEEND  =   0.0 temperature during run
   SMASS  =  -3.00    Nose mass-parameter (am)
   estimated Nose-frequenzy (Omega)   =  0.10E-29 period in steps =****** mass=  -0.252E-26a.u.
   SCALEE = 1.0000    scale energy and forces
   NPACO  =    256;   APACO  = 16.0  distance and # of slots for P.C.
   PSTRESS=    0.0 pullay stress

  Mass of Ions in am
   POMASS =  32.07 63.55 55.85
  Ionic Valenz
   ZVAL   =   6.00 17.00 14.00
  Atomic Wigner-Seitz radii
   RWIGS  =  -1.00 -1.00 -1.00
  virtual crystal weights 
   VCA    =   1.00  1.00  1.00
   NELECT =     688.0000    total number of electrons
   NUPDOWN=      -1.0000    fix difference up-down

 DOS related values:
   EMIN   =  10.00;   EMAX   =-10.00  energy-range for DOS
   EFERMI =   0.00
   ISMEAR =    -5;   SIGMA  =   0.03  broadening in eV -4-tet -1-fermi 0-gaus

 Electronic relaxation 2 (details)
   IALGO  =     38    algorithm
   LDIAG  =      T    sub-space diagonalisation (order eigenvalues)
   LSUBROT=      F    optimize rotation matrix (better conditioning)
   TURBO    =      0    0=normal 1=particle mesh
   IRESTART =      0    0=no restart 2=restart with 2 vectors
   NREBOOT  =      0    no. of reboots
   NMIN     =      0    reboot dimension
   EREF     =   0.00    reference energy to select bands
   IMIX   =      4    mixing-type and parameters
     AMIX     =   0.40;   BMIX     =  1.00
     AMIX_MAG =   1.60;   BMIX_MAG =  1.00
     AMIN     =   0.10
     WC   =   100.;   INIMIX=   1;  MIXPRE=   1;  MAXMIX= -45

 Intra band minimization:
   WEIMIN = 0.0000     energy-eigenvalue tresh-hold
   EBREAK =  0.49E-11  absolut break condition
   DEPER  =   0.30     relativ break condition  

   TIME   =   0.40     timestep for ELM

  volume/ion in A,a.u.               =      17.91       120.87
  Fermi-wavevector in a.u.,A,eV,Ry     =   1.380918  2.609557 25.945432  1.906935
  Thomas-Fermi vector in A             =   2.505751
 
 Write flags
   LWAVE        =      T    write WAVECAR
   LDOWNSAMPLE  =      F    k-point downsampling of WAVECAR
   LCHARG       =      T    write CHGCAR
   LVTOT        =      F    write LOCPOT, total local potential
   LVHAR        =      F    write LOCPOT, Hartree potential only
   LELF         =      F    write electronic localiz. function (ELF)
   LORBIT       =     11    0 simple, 1 ext, 2 COOP (PROOUT), +10 PAW based schemes


 Dipole corrections
   LMONO  =      F    monopole corrections only (constant potential shift)
   LDIPOL =      F    correct potential (dipole corrections)
   IDIPOL =      0    1-x, 2-y, 3-z, 4-all directions 
   EPSILON=  1.0000000 bulk dielectric constant

 LDA+U is selected, type is set to LDAUTYPE =  2
   angular momentum for each species LDAUL =     2    2    2
   U (eV)           for each species LDAUU =   0.0  0.1  4.7
   J (eV)           for each species LDAUJ =   0.0  0.0  0.0
 Exchange correlation treatment:
   GGA     =    PS    GGA type
   LEXCH   =    14    internal setting for exchange type
   VOSKOWN=      0    Vosko Wilk Nusair interpolation
   LHFCALC =     F    Hartree Fock is set to
   LHFONE  =     F    Hartree Fock one center treatment
   AEXX    =    0.0000 exact exchange contribution

 Linear response parameters
   LEPSILON=     F    determine dielectric tensor
   LRPA    =     F    only Hartree local field effects (RPA)
   LNABLA  =     F    use nabla operator in PAW spheres
   LVEL    =     F    velocity operator in full k-point grid
   LINTERFAST=   F  fast interpolation
   KINTER  =     0    interpolate to denser k-point grid
   CSHIFT  =0.1000    complex shift for real part using Kramers Kronig
   OMEGAMAX=  -1.0    maximum frequency
   DEG_THRESHOLD= 0.2000000E-02 threshold for treating states as degnerate
   RTIME   =   -0.100 relaxation time in fs
  (WPLASMAI=    0.000 imaginary part of plasma frequency in eV, 0.658/RTIME)
   DFIELD  = 0.0000000 0.0000000 0.0000000 field for delta impulse in time
 
 Orbital magnetization related:
   ORBITALMAG=     F  switch on orbital magnetization
   LCHIMAG   =     F  perturbation theory with respect to B field
   DQ        =  0.001000  dq finite difference perturbation B field
   LLRAUG    =     F  two centre corrections for induced B field

 PEAD related settings:
   LPEAD      =     T    switch on PEAD
   IPEAD      =     4    finite difference order for dpsi/dk
   LCALCPOL   =     T    calculate macroscopic polarization
   LCALCEPS   =     F    calculate dielectric tensor
   EFIELD_PEAD=    0.0000    0.0000    0.0000
   SKIP_EDOTP =     F
   LRPA       =     F
   SKIP_SCF   =     F


--------------------------------------------------------------------------------------------------------


 Static calculation
 charge density and potential will be updated during run
 spin polarized calculation
 Variant of blocked Davidson
 Davidson routine will perform the subspace rotation
 perform sub-space diagonalisation
    after iterative eigenvector-optimisation
 modified Broyden-mixing scheme, WC =      100.0
 initial mixing is a Kerker type mixing with AMIX =  0.4000 and BMIX =      1.0000
 Hartree-type preconditioning will be used
 using additional bands          168
 reciprocal scheme for non local part
 use partial core corrections
 calculate Harris-corrections to forces 
   (improved forces if not selfconsistent)
 use gradient corrections 
 use of overlap-Matrix (Vanderbilt PP)
 Fermi weights with tetrahedron method with Bloechl corrections


--------------------------------------------------------------------------------------------------------


  energy-cutoff  :      700.00
  volume of cell :     1146.33
      direct lattice vectors                 reciprocal lattice vectors
    10.493526000  0.513254000  0.000000000     0.095525381 -0.004672289  0.000000000
     0.513254000 10.493526000  0.000000000    -0.004672289  0.095525381  0.000000000
     0.000000000  0.000000000 10.435332000     0.000000000  0.000000000  0.095828288

  length of vectors
    10.506070511 10.506070511 10.435332000     0.095639577  0.095639577  0.095828288


 
 k-points in units of 2pi/SCALE and weight: Automatic mesh                          
   0.00000000  0.00000000  0.00000000       0.125
   0.04776269 -0.00233614  0.00000000       0.250
   0.04542655  0.04542655  0.00000000       0.125
   0.00000000  0.00000000  0.04791414       0.125
   0.04776269 -0.00233614  0.04791414       0.250
   0.04542655  0.04542655  0.04791414       0.125
 
 k-points in reciprocal lattice and weights: Automatic mesh                          
   0.00000000  0.00000000  0.00000000       0.125
   0.50000000  0.00000000  0.00000000       0.250
   0.50000000  0.50000000  0.00000000       0.125
   0.00000000  0.00000000  0.50000000       0.125
   0.50000000  0.00000000  0.50000000       0.250
   0.50000000  0.50000000  0.50000000       0.125
 
 position of ions in fractional coordinates (direct lattice) 
   0.12607200  0.12555500  0.11964800
   0.62607200  0.12555500  0.11964800
   0.12607200  0.62555500  0.11964800
   0.62607200  0.62555500  0.11964800
   0.37392800  0.37444500  0.11964800
   0.87392800  0.37444500  0.11964800
   0.37392800  0.87444500  0.11964800
   0.87392800  0.87444500  0.11964800
   0.12444500  0.37392800  0.86964800
   0.62444500  0.37392800  0.86964800
   0.12444500  0.87392800  0.86964800
   0.62444500  0.87392800  0.86964800
   0.37555500  0.12607200  0.86964800
   0.87555500  0.12607200  0.86964800
   0.37555500  0.62607200  0.86964800
   0.87555500  0.62607200  0.86964800
   0.12392800  0.12444500  0.61964800
   0.62392800  0.12444500  0.61964800
   0.12392800  0.62444500  0.61964800
   0.62392800  0.62444500  0.61964800
   0.37607200  0.37555500  0.61964800
   0.87607200  0.37555500  0.61964800
   0.37607200  0.87555500  0.61964800
   0.87607200  0.87555500  0.61964800
   0.37444500  0.12392800  0.36964800
   0.87444500  0.12392800  0.36964800
   0.37444500  0.62392800  0.36964800
   0.87444500  0.62392800  0.36964800
   0.12555500  0.37607200  0.36964800
   0.62555500  0.37607200  0.36964800
   0.12555500  0.87607200  0.36964800
   0.62555500  0.87607200  0.36964800
   0.00000000  0.00000000  0.50464200
   0.50000000  0.00000000  0.50464200
   0.00000000  0.50000000  0.50464200
   0.50000000  0.50000000  0.50464200
   0.25000000  0.00000000  0.25464200
   0.75000000  0.00000000  0.25464200
   0.25000000  0.50000000  0.25464200
   0.75000000  0.50000000  0.25464200
   0.25000000  0.25000000  0.00464200
   0.75000000  0.25000000  0.00464200
   0.25000000  0.75000000  0.00464200
   0.75000000  0.75000000  0.00464200
   0.00000000  0.25000000  0.75464200
   0.50000000  0.25000000  0.75464200
   0.00000000  0.75000000  0.75464200
   0.50000000  0.75000000  0.75464200
   0.00000000  0.00000000  0.00606200
   0.50000000  0.00000000  0.00606200
   0.00000000  0.50000000  0.00606200
   0.50000000  0.50000000  0.00606200
   0.25000000  0.00000000  0.75606200
   0.75000000  0.00000000  0.75606200
   0.25000000  0.50000000  0.75606200
   0.75000000  0.50000000  0.75606200
   0.25000000  0.25000000  0.50606200
   0.75000000  0.25000000  0.50606200
   0.25000000  0.75000000  0.50606200
   0.75000000  0.75000000  0.50606200
   0.00000000  0.25000000  0.25606200
   0.50000000  0.25000000  0.25606200
   0.00000000  0.75000000  0.25606200
   0.50000000  0.75000000  0.25606200
 
 position of ions in cartesian coordinates  (Angst):
   1.38738142  1.38222162  1.24856660
   6.63414442  1.63884862  1.24856660
   1.64400842  6.62898462  1.24856660
   6.89077142  6.88561162  1.24856660
   4.11600858  4.12116838  1.24856660
   9.36277158  4.37779538  1.24856660
   4.37263558  9.36793138  1.24856660
   9.61939858  9.62455838  1.24856660
   1.49778688  3.98769508  9.07506560
   6.74454988  4.24432208  9.07506560
   1.75441388  9.23445808  9.07506560
   7.00117688  9.49108508  9.07506560
   4.00560312  1.51569492  9.07506560
   9.25236612  1.77232192  9.07506560
   4.26223012  6.76245792  9.07506560
   9.50899312  7.01908492  9.07506560
   1.36431358  1.36947338  6.46623260
   6.61107658  1.62610038  6.46623260
   1.62094058  6.61623638  6.46623260
   6.86770358  6.87286338  6.46623260
   4.13907642  4.13391662  6.46623260
   9.38583942  4.39054362  6.46623260
   4.39570342  9.38067962  6.46623260
   9.64246642  9.63730662  6.46623260
   3.99285488  1.49262708  3.85739960
   9.23961788  1.74925408  3.85739960
   4.24948188  6.73939008  3.85739960
   9.49624488  6.99601708  3.85739960
   1.51053512  4.01076292  3.85739960
   6.75729812  4.26738992  3.85739960
   1.76716212  9.25752592  3.85739960
   7.01392512  9.51415292  3.85739960
   0.00000000  0.00000000  5.26610681
   5.24676300  0.25662700  5.26610681
   0.25662700  5.24676300  5.26610681
   5.50339000  5.50339000  5.26610681
   2.62338150  0.12831350  2.65727381
   7.87014450  0.38494050  2.65727381
   2.88000850  5.37507650  2.65727381
   8.12677150  5.63170350  2.65727381
   2.75169500  2.75169500  0.04844081
   7.99845800  3.00832200  0.04844081
   3.00832200  7.99845800  0.04844081
   8.25508500  8.25508500  0.04844081
   0.12831350  2.62338150  7.87493981
   5.37507650  2.88000850  7.87493981
   0.38494050  7.87014450  7.87493981
   5.63170350  8.12677150  7.87493981
   0.00000000  0.00000000  0.06325898
   5.24676300  0.25662700  0.06325898
   0.25662700  5.24676300  0.06325898
   5.50339000  5.50339000  0.06325898
   2.62338150  0.12831350  7.88975798
   7.87014450  0.38494050  7.88975798
   2.88000850  5.37507650  7.88975798
   8.12677150  5.63170350  7.88975798
   2.75169500  2.75169500  5.28092498
   7.99845800  3.00832200  5.28092498
   3.00832200  7.99845800  5.28092498
   8.25508500  8.25508500  5.28092498
   0.12831350  2.62338150  2.67209198
   5.37507650  2.88000850  2.67209198
   0.38494050  7.87014450  2.67209198
   5.63170350  8.12677150  2.67209198
 


--------------------------------------------------------------------------------------------------------


 k-point  1 :   0.0000 0.0000 0.0000  plane waves:   48207
 k-point  2 :   0.5000 0.0000 0.0000  plane waves:   48246
 k-point  3 :   0.5000 0.5000 0.0000  plane waves:   48220
 k-point  4 :   0.0000 0.0000 0.5000  plane waves:   48254
 k-point  5 :   0.5000 0.0000 0.5000  plane waves:   48180
 k-point  6 :   0.5000 0.5000 0.5000  plane waves:   48128

 maximum and minimum number of plane-waves per node :     48254    48128

 maximum number of plane-waves:     48254
 maximum index in each direction: 
   IXMAX=   22   IYMAX=   22   IZMAX=   22
   IXMIN=  -23   IYMIN=  -23   IZMIN=  -23


 serial   3D FFT for wavefunctions
 parallel 3D FFT for charge:
    minimum data exchange during FFTs selected (reduces bandwidth)


 total amount of memory used by VASP MPI-rank0   300225. kBytes
=======================================================================

   base      :      30000. kBytes
   nonl-proj :     174956. kBytes
   fftplans  :       4588. kBytes
   grid      :      69719. kBytes
   one-center:       1990. kBytes
   wavefun   :      18972. kBytes
 
     INWAV:  cpu time    0.0001: real time    0.0002
 Broyden mixing: mesh for mixing (old mesh)
   NGX = 45   NGY = 45   NGZ = 45
  (NGX  =192   NGY  =192   NGZ  =180)
  gives a total of  91125 points

 initial charge density was supplied:
 charge density of overlapping atoms calculated
 number of electron     688.0000000 magnetization       0.0000000
 keeping initial charge density in first step


--------------------------------------------------------------------------------------------------------


 Maximum index for augmentation-charges          897 (set IRDMAX)


--------------------------------------------------------------------------------------------------------


 First call to EWALD:  gamma=   0.169
 Maximum number of real-space cells 3x 3x 3
 Maximum number of reciprocal cells 3x 3x 3

    FEWALD:  cpu time    0.0041: real time    0.0046


--------------------------------------- Iteration      1(   1)  ---------------------------------------


    POTLOK:  cpu time    0.5156: real time    0.5996
    SETDIJ:  cpu time    0.0235: real time    0.0237
     EDDAV:  cpu time   90.6339: real time   91.5205
 BZINTS: Fermi energy: 16.846050;688.000000 electrons
         Band energy:***********;  BLOECHL correction: -0.014995
       DOS:  cpu time    0.0208: real time    0.0209
    --------------------------------------------
      LOOP:  cpu time   91.1938: real time   92.1648

 eigenvalue-minimisations  : 12288
 total energy-change (2. order) : 0.6192943E+04  (-0.5035283E+05)
 number of electron     688.0000000 magnetization       0.0000000
 augmentation part      688.0000000 magnetization       0.0000000

 Free energy of the ion-electron system (eV)
  ---------------------------------------------------
  alpha Z        PSCENC =      2365.07381303
  Ewald energy   TEWEN  =    -62590.48306980
  -Hartree energ DENC   =    -44239.00471022
  -exchange      EXHF   =         0.00000000
  -V(xc)+E(xc)   XCENC  =      3320.09862322
  PAW double counting   =     94592.23312189   -98164.79192727
  entropy T*S    EENTRO =         0.00000000
  eigenvalues    EBANDS =     -3110.24790441
  atomic energy  EATOM  =    114020.06510763
  Solvation  Ediel_sol  =         0.00000000
  ---------------------------------------------------
  free energy    TOTEN  =      6192.94305405 eV

  energy without entropy =     6192.94305405  energy(sigma->0) =     6192.94305405


--------------------------------------------------------------------------------------------------------




--------------------------------------- Iteration      1(   2)  ---------------------------------------


     EDDAV:  cpu time  102.4665: real time  103.1222
 BZINTS: Fermi energy:  6.723172;688.000000 electrons
         Band energy:***********;  BLOECHL correction:  0.000000
       DOS:  cpu time    0.0029: real time    0.0029
    --------------------------------------------
      LOOP:  cpu time  102.4693: real time  103.1251

 eigenvalue-minimisations  : 13312
 total energy-change (2. order) :-0.6284066E+04  (-0.6152804E+04)
 number of electron     688.0000000 magnetization       0.0000000
 augmentation part      688.0000000 magnetization       0.0000000

 Free energy of the ion-electron system (eV)
  ---------------------------------------------------
  alpha Z        PSCENC =      2365.07381303
  Ewald energy   TEWEN  =    -62590.48306980
  -Hartree energ DENC   =    -44239.00471022
  -exchange      EXHF   =         0.00000000
  -V(xc)+E(xc)   XCENC  =      3320.09862322
  PAW double counting   =     94592.23312189   -98164.79192727
  entropy T*S    EENTRO =         0.00000000
  eigenvalues    EBANDS =     -9394.31359123
  atomic energy  EATOM  =    114020.06510763
  Solvation  Ediel_sol  =         0.00000000
  ---------------------------------------------------
  free energy    TOTEN  =       -91.12263277 eV

  energy without entropy =      -91.12263277  energy(sigma->0) =      -91.12263277


--------------------------------------------------------------------------------------------------------




--------------------------------------- Iteration      1(   3)  ---------------------------------------


     EDDAV:  cpu time  161.8670: real time  162.8432
 BZINTS: Fermi energy:  6.165337;688.000000 electrons
         Band energy:***********;  BLOECHL correction:  0.000000
       DOS:  cpu time    0.0028: real time    0.0028
    --------------------------------------------
      LOOP:  cpu time  161.8699: real time  162.8461

 eigenvalue-minimisations  : 17664
 total energy-change (2. order) :-0.2805418E+03  (-0.2792882E+03)
 number of electron     688.0000000 magnetization       0.0000000
 augmentation part      688.0000000 magnetization       0.0000000

 Free energy of the ion-electron system (eV)
  ---------------------------------------------------
  alpha Z        PSCENC =      2365.07381303
  Ewald energy   TEWEN  =    -62590.48306980
  -Hartree energ DENC   =    -44239.00471022
  -exchange      EXHF   =         0.00000000
  -V(xc)+E(xc)   XCENC  =      3320.09862322
  PAW double counting   =     94592.23312189   -98164.79192727
  entropy T*S    EENTRO =         0.00000000
  eigenvalues    EBANDS =     -9674.85538186
  atomic energy  EATOM  =    114020.06510763
  Solvation  Ediel_sol  =         0.00000000
  ---------------------------------------------------
  free energy    TOTEN  =      -371.66442340 eV

  energy without entropy =     -371.66442340  energy(sigma->0) =     -371.66442340


--------------------------------------------------------------------------------------------------------




--------------------------------------- Iteration      1(   4)  ---------------------------------------


     EDDAV:  cpu time  108.0210: real time  108.7023
 BZINTS: Fermi energy:  6.150324;688.000000 electrons
         Band energy:***********;  BLOECHL correction:  0.000000
       DOS:  cpu time    0.0028: real time    0.0028
    --------------------------------------------
      LOOP:  cpu time  108.0238: real time  108.7051

 eigenvalue-minimisations  : 13568
 total energy-change (2. order) :-0.3889505E+01  (-0.3889305E+01)
 number of electron     688.0000000 magnetization       0.0000000
 augmentation part      688.0000000 magnetization       0.0000000

 Free energy of the ion-electron system (eV)
  ---------------------------------------------------
  alpha Z        PSCENC =      2365.07381303
  Ewald energy   TEWEN  =    -62590.48306980
  -Hartree energ DENC   =    -44239.00471022
  -exchange      EXHF   =         0.00000000
  -V(xc)+E(xc)   XCENC  =      3320.09862322
  PAW double counting   =     94592.23312189   -98164.79192727
  entropy T*S    EENTRO =         0.00000000
  eigenvalues    EBANDS =     -9678.74488722
  atomic energy  EATOM  =    114020.06510763
  Solvation  Ediel_sol  =         0.00000000
  ---------------------------------------------------
  free energy    TOTEN  =      -375.55392876 eV

  energy without entropy =     -375.55392876  energy(sigma->0) =     -375.55392876


--------------------------------------------------------------------------------------------------------




--------------------------------------- Iteration      1(   5)  ---------------------------------------


     EDDAV:  cpu time  163.3842: real time  164.3575
 BZINTS: Fermi energy:  6.053276;688.000000 electrons
         Band energy:***********;  BLOECHL correction:  0.000000
       DOS:  cpu time    0.0028: real time    0.0028
    CHARGE:  cpu time    1.6181: real time    1.6273
    MIXING:  cpu time    0.0076: real time    0.0077
    --------------------------------------------
      LOOP:  cpu time  165.0127: real time  165.9955

 eigenvalue-minimisations  : 17408
 total energy-change (2. order) :-0.1038533E+00  (-0.1038525E+00)
 number of electron     688.0000438 magnetization      -0.0000000
 augmentation part      260.9802635 magnetization      -0.0000000

 Broyden mixing:
  rms(total) = 0.75110E+01    rms(broyden)= 0.75109E+01
  rms(prec ) = 0.90084E+01
  weight for this iteration     100.00

 Free energy of the ion-electron system (eV)
  ---------------------------------------------------
  alpha Z        PSCENC =      2365.07381303
  Ewald energy   TEWEN  =    -62590.48306980
  -Hartree energ DENC   =    -44239.00471022
  -exchange      EXHF   =         0.00000000
  -V(xc)+E(xc)   XCENC  =      3320.09862322
  PAW double counting   =     94592.23312189   -98164.79192727
  entropy T*S    EENTRO =         0.00000000
  eigenvalues    EBANDS =     -9678.84874054
  atomic energy  EATOM  =    114020.06510763
  Solvation  Ediel_sol  =         0.00000000
  ---------------------------------------------------
  free energy    TOTEN  =      -375.65778208 eV

  energy without entropy =     -375.65778208  energy(sigma->0) =     -375.65778208


--------------------------------------------------------------------------------------------------------




--------------------------------------- Iteration      1(   6)  ---------------------------------------


    POTLOK:  cpu time    0.1734: real time    0.1747
    SETDIJ:  cpu time    0.0219: real time    0.0220
     EDDAV:  cpu time   92.0113: real time   92.5990
 BZINTS: Fermi energy:  4.339497;688.000000 electrons
         Band energy:***********;  BLOECHL correction:  0.000000
       DOS:  cpu time    0.0033: real time    0.0033
    CHARGE:  cpu time    1.6094: real time    1.6189
    MIXING:  cpu time    0.0034: real time    0.0302
    --------------------------------------------
      LOOP:  cpu time   93.8227: real time   94.4481

 eigenvalue-minimisations  : 12288
 total energy-change (2. order) : 0.4143972E+02  (-0.5924982E+02)
 number of electron     688.0000472 magnetization      -0.0000000
 augmentation part      296.5516591 magnetization      -0.0000000

 Broyden mixing:
  rms(total) = 0.10034E+02    rms(broyden)= 0.10034E+02
  rms(prec ) = 0.10503E+02
  weight for this iteration     100.00

 eigenvalues of (default mixing * dielectric matrix)
  average eigenvalue GAMMA=   0.1699
  0.1699

 Free energy of the ion-electron system (eV)
  ---------------------------------------------------
  alpha Z        PSCENC =      2365.07381303
  Ewald energy   TEWEN  =    -62590.48306980
  -Hartree energ DENC   =    -42277.26787374
  -exchange      EXHF   =         0.00000000
  -V(xc)+E(xc)   XCENC  =      3267.42844527
  PAW double counting   =     96396.10908276   -99754.55971347
  entropy T*S    EENTRO =         0.00000000
  eigenvalues    EBANDS =    -11760.58385192
  atomic energy  EATOM  =    114020.06510763
  Solvation  Ediel_sol  =         0.00000000
  ---------------------------------------------------
  free energy    TOTEN  =      -334.21806025 eV

  energy without entropy =     -334.21806025  energy(sigma->0) =     -334.21806025


--------------------------------------------------------------------------------------------------------




--------------------------------------- Iteration      1(   7)  ---------------------------------------


    POTLOK:  cpu time    0.1731: real time    0.1740
    SETDIJ:  cpu time    0.0215: real time    0.0216
     EDDAV:  cpu time   92.8345: real time   93.4352
 BZINTS: Fermi energy:  4.764962;688.000000 electrons
         Band energy:***********;  BLOECHL correction:  0.000000
       DOS:  cpu time    0.0033: real time    0.0033
    CHARGE:  cpu time    1.9192: real time    1.9301
    MIXING:  cpu time    0.0031: real time    0.0356
    --------------------------------------------
      LOOP:  cpu time   94.9546: real time   95.5998

 eigenvalue-minimisations  : 12288
 total energy-change (2. order) : 0.5416689E+01  (-0.1160704E+02)
 number of electron     688.0000462 magnetization      -0.0000000
 augmentation part      286.0122709 magnetization      -0.0000000

 Broyden mixing:
  rms(total) = 0.43704E+01    rms(broyden)= 0.43704E+01
  rms(prec ) = 0.44476E+01
  weight for this iteration     100.00

 eigenvalues of (default mixing * dielectric matrix)
  average eigenvalue GAMMA=   0.6159
  0.7675  0.4642

 Free energy of the ion-electron system (eV)
  ---------------------------------------------------
  alpha Z        PSCENC =      2365.07381303
  Ewald energy   TEWEN  =    -62590.48306980
  -Hartree energ DENC   =    -42768.04322306
  -exchange      EXHF   =         0.00000000
  -V(xc)+E(xc)   XCENC  =      3278.92417327
  PAW double counting   =     99822.43847982  -103338.81545579
  entropy T*S    EENTRO =         0.00000000
  eigenvalues    EBANDS =    -11117.96119635
  atomic energy  EATOM  =    114020.06510763
  Solvation  Ediel_sol  =         0.00000000
  ---------------------------------------------------
  free energy    TOTEN  =      -328.80137126 eV

  energy without entropy =     -328.80137126  energy(sigma->0) =     -328.80137126


--------------------------------------------------------------------------------------------------------




--------------------------------------- Iteration      1(   8)  ---------------------------------------


    POTLOK:  cpu time    0.2039: real time    0.2052
    SETDIJ:  cpu time    0.0254: real time    0.0255
     EDDAV:  cpu time  145.6133: real time  146.4890
 BZINTS: Fermi energy:  5.269900;688.000000 electrons
         Band energy:***********;  BLOECHL correction:  0.000000
       DOS:  cpu time    0.0032: real time    0.0033
    CHARGE:  cpu time    1.6092: real time    1.6191
    MIXING:  cpu time    0.0021: real time    0.0021
    --------------------------------------------
      LOOP:  cpu time  147.4572: real time  148.3441

 eigenvalue-minimisations  : 15872
 total energy-change (2. order) :-0.1556249E+00  (-0.3834434E+01)
 number of electron     688.0000456 magnetization      -0.0000000
 augmentation part      281.5216083 magnetization      -0.0000000

 Broyden mixing:
  rms(total) = 0.32926E+01    rms(broyden)= 0.32925E+01
  rms(prec ) = 0.35846E+01
  weight for this iteration     100.00

 eigenvalues of (default mixing * dielectric matrix)
  average eigenvalue GAMMA=   0.8619
  1.5220  0.6202  0.4435

 Free energy of the ion-electron system (eV)
  ---------------------------------------------------
  alpha Z        PSCENC =      2365.07381303
  Ewald energy   TEWEN  =    -62590.48306980
  -Hartree energ DENC   =    -43026.24216114
  -exchange      EXHF   =         0.00000000
  -V(xc)+E(xc)   XCENC  =      3291.34700389
  PAW double counting   =    105275.73075177  -108891.08610237
  entropy T*S    EENTRO =         0.00000000
  eigenvalues    EBANDS =    -10773.36233917
  atomic energy  EATOM  =    114020.06510763
  Solvation  Ediel_sol  =         0.00000000
  ---------------------------------------------------
  free energy    TOTEN  =      -328.95699617 eV

  energy without entropy =     -328.95699617  energy(sigma->0) =     -328.95699617


--------------------------------------------------------------------------------------------------------




--------------------------------------- Iteration      1(   9)  ---------------------------------------


    POTLOK:  cpu time    0.1734: real time    0.1744
    SETDIJ:  cpu time    0.0221: real time    0.0222
     EDDAV:  cpu time  125.9414: real time  126.7273
 BZINTS: Fermi energy:  4.742752;688.000000 electrons
         Band energy:***********;  BLOECHL correction:  0.000000
       DOS:  cpu time    0.0032: real time    0.0033
    CHARGE:  cpu time    1.6158: real time    1.6249
    MIXING:  cpu time    0.0026: real time    0.0044
    --------------------------------------------
      LOOP:  cpu time  127.7586: real time  128.5564

 eigenvalue-minimisations  : 15360
 total energy-change (2. order) :-0.1705571E+01  (-0.1064758E+02)
 number of electron     688.0000459 magnetization      -0.0000000
 augmentation part      282.1576067 magnetization      -0.0000000

 Broyden mixing:
  rms(total) = 0.23690E+01    rms(broyden)= 0.23689E+01
  rms(prec ) = 0.28196E+01
  weight for this iteration     100.00

 eigenvalues of (default mixing * dielectric matrix)
  average eigenvalue GAMMA=   0.9779
  2.3880  0.5969  0.5969  0.3299

 Free energy of the ion-electron system (eV)
  ---------------------------------------------------
  alpha Z        PSCENC =      2365.07381303
  Ewald energy   TEWEN  =    -62590.48306980
  -Hartree energ DENC   =    -42810.81313355
  -exchange      EXHF   =         0.00000000
  -V(xc)+E(xc)   XCENC  =      3283.98044857
  PAW double counting   =    109598.59192981  -113249.40107600
  entropy T*S    EENTRO =         0.00000000
  eigenvalues    EBANDS =    -10947.67658713
  atomic energy  EATOM  =    114020.06510763
  Solvation  Ediel_sol  =         0.00000000
  ---------------------------------------------------
  free energy    TOTEN  =      -330.66256745 eV

  energy without entropy =     -330.66256745  energy(sigma->0) =     -330.66256745


--------------------------------------------------------------------------------------------------------




--------------------------------------- Iteration      1(  10)  ---------------------------------------


    POTLOK:  cpu time    0.1731: real time    0.1741
    SETDIJ:  cpu time    0.0216: real time    0.0216
     EDDAV:  cpu time  142.9776: real time  143.8415
 BZINTS: Fermi energy:  5.175270;688.000000 electrons
         Band energy:***********;  BLOECHL correction:  0.000000
       DOS:  cpu time    0.0032: real time    0.0032
    CHARGE:  cpu time    1.6118: real time    1.6202
    MIXING:  cpu time    0.0024: real time    0.0024
    --------------------------------------------
      LOOP:  cpu time  144.7896: real time  145.6631

 eigenvalue-minimisations  : 16384
 total energy-change (2. order) : 0.3693063E+01  (-0.2126179E+01)
 number of electron     688.0000456 magnetization       0.0000000
 augmentation part      282.4277823 magnetization       0.0000000

 Broyden mixing:
  rms(total) = 0.27722E+00    rms(broyden)= 0.27717E+00
  rms(prec ) = 0.31172E+00
  weight for this iteration     100.00

 eigenvalues of (default mixing * dielectric matrix)
  average eigenvalue GAMMA=   0.9219
  2.3548  0.7795  0.5765  0.5765  0.3219

 Free energy of the ion-electron system (eV)
  ---------------------------------------------------
  alpha Z        PSCENC =      2365.07381303
  Ewald energy   TEWEN  =    -62590.48306980
  -Hartree energ DENC   =    -42840.11663272
  -exchange      EXHF   =         0.00000000
  -V(xc)+E(xc)   XCENC  =      3287.25603705
  PAW double counting   =    113204.98329423  -116901.73555095
  entropy T*S    EENTRO =         0.00000000
  eigenvalues    EBANDS =    -10872.01250299
  atomic energy  EATOM  =    114020.06510763
  Solvation  Ediel_sol  =         0.00000000
  ---------------------------------------------------
  free energy    TOTEN  =      -326.96950452 eV

  energy without entropy =     -326.96950452  energy(sigma->0) =     -326.96950452


--------------------------------------------------------------------------------------------------------




--------------------------------------- Iteration      1(  11)  ---------------------------------------


    POTLOK:  cpu time    0.1702: real time    0.1744
    SETDIJ:  cpu time    0.0216: real time    0.0217
     EDDAV:  cpu time  164.8761: real time  165.8575
 BZINTS: Fermi energy:  5.190406;688.000000 electrons
         Band energy:***********;  BLOECHL correction:  0.000000
       DOS:  cpu time    0.0033: real time    0.0033
    CHARGE:  cpu time    1.6084: real time    1.6179
    MIXING:  cpu time    0.0025: real time    0.0025
    --------------------------------------------
      LOOP:  cpu time  166.6820: real time  167.6774

 eigenvalue-minimisations  : 18176
 total energy-change (2. order) :-0.1155961E+00  (-0.1297266E+00)
 number of electron     688.0000455 magnetization      -0.0000000
 augmentation part      282.3861173 magnetization      -0.0000000

 Broyden mixing:
  rms(total) = 0.35442E+00    rms(broyden)= 0.35440E+00
  rms(prec ) = 0.38956E+00
  weight for this iteration     100.00

 eigenvalues of (default mixing * dielectric matrix)
  average eigenvalue GAMMA=   0.9022
  2.2444  0.8183  0.7218  0.7218  0.5717  0.3350

 Free energy of the ion-electron system (eV)
  ---------------------------------------------------
  alpha Z        PSCENC =      2365.07381303
  Ewald energy   TEWEN  =    -62590.48306980
  -Hartree energ DENC   =    -42859.10813140
  -exchange      EXHF   =         0.00000000
  -V(xc)+E(xc)   XCENC  =      3287.03269828
  PAW double counting   =    113001.71962770  -116698.49108212
  entropy T*S    EENTRO =         0.00000000
  eigenvalues    EBANDS =    -10852.89406398
  atomic energy  EATOM  =    114020.06510763
  Solvation  Ediel_sol  =         0.00000000
  ---------------------------------------------------
  free energy    TOTEN  =      -327.08510066 eV

  energy without entropy =     -327.08510066  energy(sigma->0) =     -327.08510066


--------------------------------------------------------------------------------------------------------




--------------------------------------- Iteration      1(  12)  ---------------------------------------


    POTLOK:  cpu time    0.1728: real time    0.1741
    SETDIJ:  cpu time    0.0215: real time    0.0215
     EDDAV:  cpu time  142.4941: real time  143.3482
 BZINTS: Fermi energy:  5.174881;688.000000 electrons
         Band energy:***********;  BLOECHL correction:  0.000000
       DOS:  cpu time    0.0032: real time    0.0032
    CHARGE:  cpu time    1.5967: real time    1.6051
    MIXING:  cpu time    0.0026: real time    0.0026
    --------------------------------------------
      LOOP:  cpu time  144.2909: real time  145.1547

 eigenvalue-minimisations  : 15872
 total energy-change (2. order) : 0.7205976E-02  (-0.4774713E-01)
 number of electron     688.0000455 magnetization       0.0000000
 augmentation part      282.2650088 magnetization       0.0000000

 Broyden mixing:
  rms(total) = 0.13275E+00    rms(broyden)= 0.13275E+00
  rms(prec ) = 0.14771E+00
  weight for this iteration     100.00

 eigenvalues of (default mixing * dielectric matrix)
  average eigenvalue GAMMA=   0.9451
  2.2690  1.0972  1.0972  0.6234  0.6234  0.5712  0.3345

 Free energy of the ion-electron system (eV)
  ---------------------------------------------------
  alpha Z        PSCENC =      2365.07381303
  Ewald energy   TEWEN  =    -62590.48306980
  -Hartree energ DENC   =    -42859.21656328
  -exchange      EXHF   =         0.00000000
  -V(xc)+E(xc)   XCENC  =      3286.53398910
  PAW double counting   =    112609.41892504  -116303.03089033
  entropy T*S    EENTRO =         0.00000000
  eigenvalues    EBANDS =    -10855.43920607
  atomic energy  EATOM  =    114020.06510763
  Solvation  Ediel_sol  =         0.00000000
  ---------------------------------------------------
  free energy    TOTEN  =      -327.07789468 eV

  energy without entropy =     -327.07789468  energy(sigma->0) =     -327.07789468


--------------------------------------------------------------------------------------------------------




--------------------------------------- Iteration      1(  13)  ---------------------------------------


    POTLOK:  cpu time    0.1731: real time    0.1741
    SETDIJ:  cpu time    0.0213: real time    0.0213
     EDDAV:  cpu time  137.3625: real time  138.2046
 BZINTS: Fermi energy:  5.177393;688.000000 electrons
         Band energy:***********;  BLOECHL correction:  0.000000
       DOS:  cpu time    0.0032: real time    0.0032
    CHARGE:  cpu time    1.5862: real time    1.5954
    MIXING:  cpu time    0.0026: real time    0.0026
    --------------------------------------------
      LOOP:  cpu time  139.1489: real time  140.0013

 eigenvalue-minimisations  : 15360
 total energy-change (2. order) :-0.8531175E-02  (-0.4868572E-02)
 number of electron     688.0000455 magnetization      -0.0000000
 augmentation part      282.2795923 magnetization      -0.0000000

 Broyden mixing:
  rms(total) = 0.90149E-01    rms(broyden)= 0.90148E-01
  rms(prec ) = 0.93007E-01
  weight for this iteration     100.00

 eigenvalues of (default mixing * dielectric matrix)
  average eigenvalue GAMMA=   1.1310
  2.5600  2.5600  0.3345  0.8432  0.8432  0.6686  0.6686  0.5698

 Free energy of the ion-electron system (eV)
  ---------------------------------------------------
  alpha Z        PSCENC =      2365.07381303
  Ewald energy   TEWEN  =    -62590.48306980
  -Hartree energ DENC   =    -42864.74973360
  -exchange      EXHF   =         0.00000000
  -V(xc)+E(xc)   XCENC  =      3286.60110141
  PAW double counting   =    112367.97287829  -116061.42650091
  entropy T*S    EENTRO =         0.00000000
  eigenvalues    EBANDS =    -10850.14002190
  atomic energy  EATOM  =    114020.06510763
  Solvation  Ediel_sol  =         0.00000000
  ---------------------------------------------------
  free energy    TOTEN  =      -327.08642586 eV

  energy without entropy =     -327.08642586  energy(sigma->0) =     -327.08642586


--------------------------------------------------------------------------------------------------------




--------------------------------------- Iteration      1(  14)  ---------------------------------------


    POTLOK:  cpu time    0.1725: real time    0.1737
    SETDIJ:  cpu time    0.0216: real time    0.0217
     EDDAV:  cpu time  163.5323: real time  164.5025
 BZINTS: Fermi energy:  5.180298;688.000000 electrons
         Band energy:***********;  BLOECHL correction:  0.000000
       DOS:  cpu time    0.0041: real time    0.0041
    CHARGE:  cpu time    1.6109: real time    1.6193
    MIXING:  cpu time    0.0028: real time    0.0028
    --------------------------------------------
      LOOP:  cpu time  165.3441: real time  166.3241

 eigenvalue-minimisations  : 17408
 total energy-change (2. order) :-0.1274084E-01  (-0.7383992E-02)
 number of electron     688.0000455 magnetization       0.0000000
 augmentation part      282.2406539 magnetization       0.0000000

 Broyden mixing:
  rms(total) = 0.42640E-01    rms(broyden)= 0.42632E-01
  rms(prec ) = 0.48117E-01
  weight for this iteration     100.00

 eigenvalues of (default mixing * dielectric matrix)
  average eigenvalue GAMMA=   1.0579
  2.3967  2.3967  0.9433  0.9433  0.3344  0.6463  0.6463  0.5637  0.6503

 Free energy of the ion-electron system (eV)
  ---------------------------------------------------
  alpha Z        PSCENC =      2365.07381303
  Ewald energy   TEWEN  =    -62590.48306980
  -Hartree energ DENC   =    -42873.61109751
  -exchange      EXHF   =         0.00000000
  -V(xc)+E(xc)   XCENC  =      3286.42895928
  PAW double counting   =    112096.23772926  -115788.96486576
  entropy T*S    EENTRO =         0.00000000
  eigenvalues    EBANDS =    -10841.84574282
  atomic energy  EATOM  =    114020.06510763
  Solvation  Ediel_sol  =         0.00000000
  ---------------------------------------------------
  free energy    TOTEN  =      -327.09916670 eV

  energy without entropy =     -327.09916670  energy(sigma->0) =     -327.09916670


--------------------------------------------------------------------------------------------------------




--------------------------------------- Iteration      1(  15)  ---------------------------------------


    POTLOK:  cpu time    0.1731: real time    0.1742
    SETDIJ:  cpu time    0.0212: real time    0.0213
     EDDAV:  cpu time  100.1759: real time  100.8116
 BZINTS: Fermi energy:  5.179321;688.000000 electrons
         Band energy:***********;  BLOECHL correction:  0.000000
       DOS:  cpu time    0.0032: real time    0.0032
    CHARGE:  cpu time    1.6107: real time    1.6186
    MIXING:  cpu time    0.0028: real time    0.0029
    --------------------------------------------
      LOOP:  cpu time  101.9869: real time  102.6318

 eigenvalue-minimisations  : 12800
 total energy-change (2. order) : 0.1689764E-03  (-0.5761394E-03)
 number of electron     688.0000455 magnetization      -0.0000000
 augmentation part      282.2393643 magnetization      -0.0000000

 Broyden mixing:
  rms(total) = 0.19024E-01    rms(broyden)= 0.19023E-01
  rms(prec ) = 0.20213E-01
  weight for this iteration     100.00

 eigenvalues of (default mixing * dielectric matrix)
  average eigenvalue GAMMA=   1.0070
  2.3365  2.3365  0.9560  0.9560  0.3344  0.6440  0.6440  0.5731  0.6447  0.6447

 Free energy of the ion-electron system (eV)
  ---------------------------------------------------
  alpha Z        PSCENC =      2365.07381303
  Ewald energy   TEWEN  =    -62590.48306980
  -Hartree energ DENC   =    -42872.52160103
  -exchange      EXHF   =         0.00000000
  -V(xc)+E(xc)   XCENC  =      3286.40865628
  PAW double counting   =    112184.54444018  -115877.58015660
  entropy T*S    EENTRO =         0.00000000
  eigenvalues    EBANDS =    -10842.60618740
  atomic energy  EATOM  =    114020.06510763
  Solvation  Ediel_sol  =         0.00000000
  ---------------------------------------------------
  free energy    TOTEN  =      -327.09899772 eV

  energy without entropy =     -327.09899772  energy(sigma->0) =     -327.09899772


--------------------------------------------------------------------------------------------------------




--------------------------------------- Iteration      1(  16)  ---------------------------------------


    POTLOK:  cpu time    0.1724: real time    0.1735
    SETDIJ:  cpu time    0.0213: real time    0.0214
     EDDAV:  cpu time  184.1445: real time  185.2130
 BZINTS: Fermi energy:  5.179342;688.000000 electrons
         Band energy:***********;  BLOECHL correction:  0.000000
       DOS:  cpu time    0.0032: real time    0.0032
    CHARGE:  cpu time    1.6108: real time    1.6201
    MIXING:  cpu time    0.0029: real time    0.0138
    --------------------------------------------
      LOOP:  cpu time  185.9551: real time  187.0450

 eigenvalue-minimisations  : 18432
 total energy-change (2. order) :-0.3359060E-03  (-0.7121951E-04)
 number of electron     688.0000455 magnetization      -0.0000000
 augmentation part      282.2406930 magnetization      -0.0000000

 Broyden mixing:
  rms(total) = 0.13090E-01    rms(broyden)= 0.13089E-01
  rms(prec ) = 0.13732E-01
  weight for this iteration     100.00

 eigenvalues of (default mixing * dielectric matrix)
  average eigenvalue GAMMA=   1.1727
  2.7822  2.2079  2.2079  1.1352  0.3344  0.8476  0.8476  0.6690  0.6690  0.5657
  0.6328

 Free energy of the ion-electron system (eV)
  ---------------------------------------------------
  alpha Z        PSCENC =      2365.07381303
  Ewald energy   TEWEN  =    -62590.48306980
  -Hartree energ DENC   =    -42872.79468937
  -exchange      EXHF   =         0.00000000
  -V(xc)+E(xc)   XCENC  =      3286.42873053
  PAW double counting   =    112195.58430215  -115888.54818667
  entropy T*S    EENTRO =         0.00000000
  eigenvalues    EBANDS =    -10842.42534112
  atomic energy  EATOM  =    114020.06510763
  Solvation  Ediel_sol  =         0.00000000
  ---------------------------------------------------
  free energy    TOTEN  =      -327.09933363 eV

  energy without entropy =     -327.09933363  energy(sigma->0) =     -327.09933363


--------------------------------------------------------------------------------------------------------




--------------------------------------- Iteration      1(  17)  ---------------------------------------


    POTLOK:  cpu time    0.1724: real time    0.1736
    SETDIJ:  cpu time    0.0216: real time    0.0217
     EDDAV:  cpu time  112.4435: real time  113.1388
 BZINTS: Fermi energy:  5.180016;688.000000 electrons
         Band energy:***********;  BLOECHL correction:  0.000000
       DOS:  cpu time    0.0032: real time    0.0032
    CHARGE:  cpu time    1.6089: real time    1.6182
    MIXING:  cpu time    0.0030: real time    0.0030
    --------------------------------------------
      LOOP:  cpu time  114.2527: real time  114.9586

 eigenvalue-minimisations  : 13824
 total energy-change (2. order) :-0.8459509E-03  (-0.4642926E-03)
 number of electron     688.0000455 magnetization       0.0000000
 augmentation part      282.2325018 magnetization       0.0000000

 Broyden mixing:
  rms(total) = 0.80497E-02    rms(broyden)= 0.80479E-02
  rms(prec ) = 0.86274E-02
  weight for this iteration     100.00

 eigenvalues of (default mixing * dielectric matrix)
  average eigenvalue GAMMA=   1.1810
  3.5329  2.1355  1.9379  1.1847  0.9375  0.9375  0.3344  0.6534  0.6534  0.5730
  0.6457  0.6457

 Free energy of the ion-electron system (eV)
  ---------------------------------------------------
  alpha Z        PSCENC =      2365.07381303
  Ewald energy   TEWEN  =    -62590.48306980
  -Hartree energ DENC   =    -42874.71611022
  -exchange      EXHF   =         0.00000000
  -V(xc)+E(xc)   XCENC  =      3286.48200880
  PAW double counting   =    112187.30515547  -115880.01351798
  entropy T*S    EENTRO =         0.00000000
  eigenvalues    EBANDS =    -10840.81356650
  atomic energy  EATOM  =    114020.06510763
  Solvation  Ediel_sol  =         0.00000000
  ---------------------------------------------------
  free energy    TOTEN  =      -327.10017958 eV

  energy without entropy =     -327.10017958  energy(sigma->0) =     -327.10017958


--------------------------------------------------------------------------------------------------------




--------------------------------------- Iteration      1(  18)  ---------------------------------------


    POTLOK:  cpu time    0.1704: real time    0.1743
    SETDIJ:  cpu time    0.0213: real time    0.0214
     EDDAV:  cpu time  138.9504: real time  139.7860
 BZINTS: Fermi energy:  5.179880;688.000000 electrons
         Band energy:***********;  BLOECHL correction:  0.000000
       DOS:  cpu time    0.0032: real time    0.0032
    CHARGE:  cpu time    1.6104: real time    1.6195
    MIXING:  cpu time    0.0031: real time    0.0031
    --------------------------------------------
      LOOP:  cpu time  140.7589: real time  141.6075

 eigenvalue-minimisations  : 15360
 total energy-change (2. order) :-0.7029639E-04  (-0.2470356E-04)
 number of electron     688.0000455 magnetization       0.0000000
 augmentation part      282.2390925 magnetization       0.0000000

 Broyden mixing:
  rms(total) = 0.57786E-02    rms(broyden)= 0.57783E-02
  rms(prec ) = 0.68411E-02
  weight for this iteration     100.00

 eigenvalues of (default mixing * dielectric matrix)
  average eigenvalue GAMMA=   1.1555
  3.6546  2.1323  2.0361  1.0609  1.0609  0.3344  0.7276  0.7276  0.8120  0.6592
  0.6592  0.5782  0.5782

 Free energy of the ion-electron system (eV)
  ---------------------------------------------------
  alpha Z        PSCENC =      2365.07381303
  Ewald energy   TEWEN  =    -62590.48306980
  -Hartree energ DENC   =    -42874.51738809
  -exchange      EXHF   =         0.00000000
  -V(xc)+E(xc)   XCENC  =      3286.48649490
  PAW double counting   =    112192.51030753  -115885.20589077
  entropy T*S    EENTRO =         0.00000000
  eigenvalues    EBANDS =    -10841.02962429
  atomic energy  EATOM  =    114020.06510763
  Solvation  Ediel_sol  =         0.00000000
  ---------------------------------------------------
  free energy    TOTEN  =      -327.10024988 eV

  energy without entropy =     -327.10024988  energy(sigma->0) =     -327.10024988


--------------------------------------------------------------------------------------------------------




--------------------------------------- Iteration      1(  19)  ---------------------------------------


    POTLOK:  cpu time    0.1710: real time    0.1734
    SETDIJ:  cpu time    0.0215: real time    0.0216
     EDDAV:  cpu time  184.3224: real time  185.3861
 BZINTS: Fermi energy:  5.179700;688.000000 electrons
         Band energy:***********;  BLOECHL correction:  0.000000
       DOS:  cpu time    0.0032: real time    0.0032
    CHARGE:  cpu time    1.5893: real time    1.5975
    MIXING:  cpu time    0.0031: real time    0.0032
    --------------------------------------------
      LOOP:  cpu time  186.1106: real time  187.1849

 eigenvalue-minimisations  : 18176
 total energy-change (2. order) :-0.6520713E-06  (-0.6978954E-05)
 number of electron     688.0000455 magnetization       0.0000000
 augmentation part      282.2394870 magnetization       0.0000000

 Broyden mixing:
  rms(total) = 0.35625E-02    rms(broyden)= 0.35624E-02
  rms(prec ) = 0.39502E-02
  weight for this iteration     100.00

 eigenvalues of (default mixing * dielectric matrix)
  average eigenvalue GAMMA=   1.2368
  3.7841  2.3661  2.3661  1.3402  1.3402  0.9716  0.9716  0.3344  0.6672  0.6672
[...]
   -.418E+02 0.813E+00 0.301E+02   0.426E+02 -.781E+00 -.304E+02   -.842E+00 -.309E-01 0.288E+00   -.203E-03 -.618E-05 -.152E-04
   -.418E+02 0.813E+00 0.301E+02   0.426E+02 -.781E+00 -.304E+02   -.842E+00 -.309E-01 0.288E+00   -.203E-03 -.618E-05 -.152E-04
   -.418E+02 0.813E+00 0.301E+02   0.426E+02 -.781E+00 -.304E+02   -.842E+00 -.309E-01 0.288E+00   -.203E-03 -.618E-05 -.152E-04
   -.418E+02 0.813E+00 0.301E+02   0.426E+02 -.781E+00 -.304E+02   -.842E+00 -.309E-01 0.288E+00   -.203E-03 -.618E-05 -.152E-04
   0.418E+02 -.813E+00 0.301E+02   -.426E+02 0.781E+00 -.304E+02   0.842E+00 0.309E-01 0.288E+00   0.203E-03 0.618E-05 -.152E-04
   0.418E+02 -.813E+00 0.301E+02   -.426E+02 0.781E+00 -.304E+02   0.842E+00 0.309E-01 0.288E+00   0.203E-03 0.618E-05 -.152E-04
   0.418E+02 -.813E+00 0.301E+02   -.426E+02 0.781E+00 -.304E+02   0.842E+00 0.309E-01 0.288E+00   0.203E-03 0.618E-05 -.152E-04
   0.418E+02 -.813E+00 0.301E+02   -.426E+02 0.781E+00 -.304E+02   0.842E+00 0.309E-01 0.288E+00   0.203E-03 0.618E-05 -.152E-04
   0.813E+00 -.418E+02 0.301E+02   -.781E+00 0.426E+02 -.304E+02   -.309E-01 -.842E+00 0.288E+00   -.618E-05 -.203E-03 -.152E-04
   0.813E+00 -.418E+02 0.301E+02   -.781E+00 0.426E+02 -.304E+02   -.309E-01 -.842E+00 0.288E+00   -.618E-05 -.203E-03 -.152E-04
   0.813E+00 -.418E+02 0.301E+02   -.781E+00 0.426E+02 -.304E+02   -.309E-01 -.842E+00 0.288E+00   -.618E-05 -.203E-03 -.152E-04
   0.813E+00 -.418E+02 0.301E+02   -.781E+00 0.426E+02 -.304E+02   -.309E-01 -.842E+00 0.288E+00   -.618E-05 -.203E-03 -.152E-04
   -.813E+00 0.418E+02 0.301E+02   0.781E+00 -.426E+02 -.304E+02   0.309E-01 0.842E+00 0.288E+00   0.618E-05 0.203E-03 -.152E-04
   -.813E+00 0.418E+02 0.301E+02   0.781E+00 -.426E+02 -.304E+02   0.309E-01 0.842E+00 0.288E+00   0.618E-05 0.203E-03 -.152E-04
   -.813E+00 0.418E+02 0.301E+02   0.781E+00 -.426E+02 -.304E+02   0.309E-01 0.842E+00 0.288E+00   0.618E-05 0.203E-03 -.152E-04
   -.813E+00 0.418E+02 0.301E+02   0.781E+00 -.426E+02 -.304E+02   0.309E-01 0.842E+00 0.288E+00   0.618E-05 0.203E-03 -.152E-04
   -.523E-07 -.210E-07 -.353E+02   0.213E-12 0.156E-12 0.339E+02   -.485E-26 -.517E-25 0.142E+01   -.355E-12 0.129E-12 0.128E-03
   -.523E-07 -.210E-07 -.353E+02   0.242E-12 0.199E-12 0.339E+02   -.149E-25 0.646E-25 0.142E+01   -.479E-12 0.149E-12 0.128E-03
   -.523E-07 -.210E-07 -.353E+02   0.185E-12 0.163E-12 0.339E+02   -.113E-25 0.258E-25 0.142E+01   -.241E-12 -.103E-12 0.128E-03
   -.523E-07 -.210E-07 -.353E+02   0.213E-12 0.171E-12 0.339E+02   0.808E-26 -.129E-25 0.142E+01   -.459E-12 -.220E-12 0.128E-03
   -.210E-07 -.523E-07 -.353E+02   0.284E-12 0.256E-12 0.339E+02   0.113E-25 -.775E-25 0.142E+01   -.596E-12 0.301E-12 0.128E-03
   -.210E-07 -.523E-07 -.353E+02   0.313E-12 0.256E-12 0.339E+02   -.129E-24 -.258E-25 0.142E+01   -.253E-12 0.423E-12 0.128E-03
   -.210E-07 -.522E-07 -.353E+02   0.256E-12 0.227E-12 0.339E+02   0.921E-25 -.258E-25 0.142E+01   -.467E-12 0.322E-13 0.128E-03
   -.210E-07 -.523E-07 -.353E+02   0.284E-12 0.227E-12 0.339E+02   0.759E-25 -.646E-25 0.142E+01   -.356E-12 -.222E-13 0.128E-03
   -.523E-07 -.210E-07 -.353E+02   0.213E-12 0.405E-12 0.339E+02   -.194E-25 -.840E-25 0.142E+01   -.501E-12 0.217E-13 0.128E-03
   -.523E-07 -.210E-07 -.353E+02   0.213E-12 0.412E-12 0.339E+02   0.311E-25 0.258E-25 0.142E+01   -.393E-12 0.496E-13 0.128E-03
   -.523E-07 -.210E-07 -.353E+02   0.199E-12 0.456E-12 0.339E+02   0.347E-25 0.258E-25 0.142E+01   -.484E-12 -.815E-13 0.128E-03
   -.523E-07 -.210E-07 -.353E+02   0.256E-12 0.385E-12 0.339E+02   0.775E-25 0.775E-25 0.142E+01   -.278E-12 -.218E-13 0.128E-03
   -.210E-07 -.523E-07 -.353E+02   0.268E-12 0.466E-12 0.339E+02   -.102E-24 -.517E-25 0.142E+01   -.435E-12 0.168E-12 0.128E-03
   -.210E-07 -.523E-07 -.353E+02   0.298E-12 0.522E-12 0.339E+02   -.452E-25 -.258E-25 0.142E+01   -.342E-12 0.312E-12 0.128E-03
   -.210E-07 -.523E-07 -.353E+02   0.260E-12 0.495E-12 0.339E+02   0.158E-25 -.646E-25 0.142E+01   -.210E-12 0.148E-12 0.128E-03
   -.210E-07 -.522E-07 -.353E+02   0.291E-12 0.495E-12 0.339E+02   0.458E-25 0.614E-25 0.142E+01   -.488E-12 0.150E-14 0.128E-03
   -.433E-07 0.589E-07 -.285E+02   -.183E-12 -.529E-12 0.269E+02   -.152E-24 0.129E-25 0.168E+01   -.125E-12 0.333E-13 0.716E-04
   -.433E-07 0.589E-07 -.285E+02   -.183E-12 -.526E-12 0.269E+02   0.227E-24 -.207E-24 0.168E+01   -.221E-12 0.835E-13 0.716E-04
   -.433E-07 0.589E-07 -.285E+02   -.137E-12 -.508E-12 0.269E+02   0.122E-24 -.103E-24 0.168E+01   -.767E-13 -.256E-12 0.716E-04
   -.433E-07 0.589E-07 -.285E+02   -.165E-12 -.512E-12 0.269E+02   -.618E-25 -.969E-25 0.168E+01   -.210E-12 -.291E-12 0.716E-04
   0.589E-07 -.433E-07 -.285E+02   -.242E-12 -.124E-12 0.269E+02   -.118E-24 -.258E-25 0.168E+01   -.343E-12 -.180E-12 0.716E-04
   0.589E-07 -.433E-07 -.285E+02   -.245E-12 -.124E-12 0.269E+02   0.138E-25 -.315E-25 0.168E+01   -.521E-13 0.212E-13 0.716E-04
   0.589E-07 -.433E-07 -.285E+02   -.274E-12 -.959E-13 0.269E+02   0.141E-26 -.517E-25 0.168E+01   -.165E-12 -.329E-12 0.716E-04
   0.589E-07 -.433E-07 -.285E+02   -.277E-12 -.462E-13 0.269E+02   0.364E-26 0.194E-25 0.168E+01   -.209E-12 -.450E-12 0.716E-04
   -.433E-07 0.589E-07 -.285E+02   -.131E-12 -.429E-12 0.269E+02   0.291E-25 0.517E-25 0.168E+01   -.216E-12 -.265E-13 0.716E-04
   -.433E-07 0.589E-07 -.285E+02   -.131E-12 -.427E-12 0.269E+02   -.166E-25 -.129E-24 0.168E+01   -.662E-13 -.492E-13 0.716E-04
   -.433E-07 0.589E-07 -.285E+02   -.213E-12 -.388E-12 0.269E+02   0.436E-25 -.646E-25 0.168E+01   -.303E-12 -.149E-12 0.716E-04
   -.433E-07 0.589E-07 -.285E+02   -.156E-12 -.385E-12 0.269E+02   -.349E-25 0.969E-25 0.168E+01   -.400E-13 -.106E-12 0.716E-04
   0.589E-07 -.433E-07 -.285E+02   -.266E-12 -.368E-13 0.269E+02   -.186E-25 -.142E-24 0.168E+01   -.115E-12 -.315E-12 0.716E-04
   0.589E-07 -.433E-07 -.285E+02   -.239E-12 -.102E-12 0.269E+02   -.533E-25 -.517E-25 0.168E+01   -.214E-12 -.300E-12 0.716E-04
   0.589E-07 -.433E-07 -.285E+02   -.283E-12 -.453E-13 0.269E+02   -.118E-24 -.129E-25 0.168E+01   -.197E-13 -.177E-12 0.716E-04
   0.589E-07 -.432E-07 -.285E+02   -.228E-12 -.393E-13 0.269E+02   -.492E-25 -.200E-24 0.168E+01   -.238E-12 -.266E-12 0.716E-04
 -----------------------------------------------------------------------------------------------
   -.156E-06 -.156E-06 -.588E+02   0.144E-12 -.285E-12 -.327E-12   -.690E-15 -.178E-14 0.588E+02   -.601E-11 0.266E-12 0.271E-02
 
 
 POSITION                                       TOTAL-FORCE (eV/Angst)
 -----------------------------------------------------------------------------------
      1.38738      1.38222      1.24857         0.001565     -0.001100     -0.006657
      6.63414      1.63885      1.24857         0.001565     -0.001100     -0.006657
      1.64401      6.62898      1.24857         0.001565     -0.001100     -0.006657
      6.89077      6.88561      1.24857         0.001565     -0.001100     -0.006657
      4.11601      4.12117      1.24857        -0.001565      0.001100     -0.006657
      9.36277      4.37780      1.24857        -0.001565      0.001100     -0.006657
      4.37264      9.36793      1.24857        -0.001565      0.001100     -0.006657
      9.61940      9.62456      1.24857        -0.001565      0.001100     -0.006657
      1.49779      3.98770      9.07507         0.001100     -0.001565     -0.006657
      6.74455      4.24432      9.07507         0.001100     -0.001565     -0.006657
      1.75441      9.23446      9.07507         0.001100     -0.001565     -0.006657
      7.00118      9.49109      9.07507         0.001100     -0.001565     -0.006657
      4.00560      1.51569      9.07507        -0.001100      0.001565     -0.006657
      9.25237      1.77232      9.07507        -0.001100      0.001565     -0.006657
      4.26223      6.76246      9.07507        -0.001100      0.001565     -0.006657
      9.50899      7.01908      9.07507        -0.001100      0.001565     -0.006657
      1.36431      1.36947      6.46623        -0.001565      0.001100     -0.006657
      6.61108      1.62610      6.46623        -0.001565      0.001100     -0.006657
      1.62094      6.61624      6.46623        -0.001565      0.001100     -0.006657
      6.86770      6.87286      6.46623        -0.001565      0.001100     -0.006657
      4.13908      4.13392      6.46623         0.001565     -0.001100     -0.006657
      9.38584      4.39054      6.46623         0.001565     -0.001100     -0.006657
      4.39570      9.38068      6.46623         0.001565     -0.001100     -0.006657
      9.64247      9.63731      6.46623         0.001565     -0.001100     -0.006657
      3.99285      1.49263      3.85740         0.001100     -0.001565     -0.006657
      9.23962      1.74925      3.85740         0.001100     -0.001565     -0.006657
      4.24948      6.73939      3.85740         0.001100     -0.001565     -0.006657
      9.49624      6.99602      3.85740         0.001100     -0.001565     -0.006657
      1.51054      4.01076      3.85740        -0.001100      0.001565     -0.006657
      6.75730      4.26739      3.85740        -0.001100      0.001565     -0.006657
      1.76716      9.25753      3.85740        -0.001100      0.001565     -0.006657
      7.01393      9.51415      3.85740        -0.001100      0.001565     -0.006657
      0.00000      0.00000      5.26611         0.000000     -0.000000      0.005392
      5.24676      0.25663      5.26611         0.000000     -0.000000      0.005392
      0.25663      5.24676      5.26611         0.000000     -0.000000      0.005392
      5.50339      5.50339      5.26611         0.000000     -0.000000      0.005392
      2.62338      0.12831      2.65727         0.000000     -0.000000      0.005392
      7.87014      0.38494      2.65727         0.000000     -0.000000      0.005392
      2.88001      5.37508      2.65727         0.000000     -0.000000      0.005392
      8.12677      5.63170      2.65727         0.000000     -0.000000      0.005392
      2.75169      2.75169      0.04844         0.000000     -0.000000      0.005392
      7.99846      3.00832      0.04844         0.000000     -0.000000      0.005392
      3.00832      7.99846      0.04844         0.000000     -0.000000      0.005392
      8.25508      8.25508      0.04844         0.000000     -0.000000      0.005392
      0.12831      2.62338      7.87494         0.000000     -0.000000      0.005392
      5.37508      2.88001      7.87494         0.000000     -0.000000      0.005392
      0.38494      7.87014      7.87494         0.000000     -0.000000      0.005392
      5.63170      8.12677      7.87494         0.000000     -0.000000      0.005392
      0.00000      0.00000      0.06326         0.000000     -0.000000      0.007922
      5.24676      0.25663      0.06326         0.000000     -0.000000      0.007922
      0.25663      5.24676      0.06326         0.000000     -0.000000      0.007922
      5.50339      5.50339      0.06326         0.000000     -0.000000      0.007922
      2.62338      0.12831      7.88976         0.000000     -0.000000      0.007922
      7.87014      0.38494      7.88976         0.000000     -0.000000      0.007922
      2.88001      5.37508      7.88976         0.000000     -0.000000      0.007922
      8.12677      5.63170      7.88976         0.000000     -0.000000      0.007922
      2.75169      2.75169      5.28092         0.000000     -0.000000      0.007922
      7.99846      3.00832      5.28092         0.000000     -0.000000      0.007922
      3.00832      7.99846      5.28092         0.000000     -0.000000      0.007922
      8.25508      8.25508      5.28092         0.000000     -0.000000      0.007922
      0.12831      2.62338      2.67209         0.000000     -0.000000      0.007922
      5.37508      2.88001      2.67209         0.000000     -0.000000      0.007922
      0.38494      7.87014      2.67209         0.000000     -0.000000      0.007922
      5.63170      8.12677      2.67209         0.000000     -0.000000      0.007922
 -----------------------------------------------------------------------------------
    total drift:                               -0.000000     -0.000000      0.024898


--------------------------------------------------------------------------------------------------------



  FREE ENERGIE OF THE ION-ELECTRON SYSTEM (eV)
  ---------------------------------------------------
  free  energy   TOTEN  =      -327.10025901 eV

  energy  without entropy=     -327.10025901  energy(sigma->0) =     -327.10025901
 


--------------------------------------------------------------------------------------------------------


    POTLOK:  cpu time    0.1880: real time    0.1889


--------------------------------------------------------------------------------------------------------


 writing wavefunctions
     LOOP+:  cpu time 3792.0855: real time 3815.6262
    4ORBIT:  cpu time    0.0000: real time    0.0000
 


 total charge     
 
# of ion       s       p       d       tot
------------------------------------------
    1        1.314   2.407   0.000   3.722
    2        1.314   2.407   0.000   3.722
    3        1.314   2.407   0.000   3.722
    4        1.314   2.407   0.000   3.722
    5        1.314   2.407   0.000   3.722
    6        1.314   2.407   0.000   3.722
    7        1.314   2.407   0.000   3.722
    8        1.314   2.407   0.000   3.722
    9        1.314   2.407   0.000   3.722
   10        1.314   2.407   0.000   3.722
   11        1.314   2.407   0.000   3.722
   12        1.314   2.407   0.000   3.722
   13        1.314   2.407   0.000   3.722
   14        1.314   2.407   0.000   3.722
   15        1.314   2.407   0.000   3.722
   16        1.314   2.407   0.000   3.722
   17        1.314   2.407   0.000   3.722
   18        1.314   2.407   0.000   3.722
   19        1.314   2.407   0.000   3.722
   20        1.314   2.407   0.000   3.722
   21        1.314   2.407   0.000   3.722
   22        1.314   2.407   0.000   3.722
   23        1.314   2.407   0.000   3.722
   24        1.314   2.407   0.000   3.722
   25        1.314   2.407   0.000   3.722
   26        1.314   2.407   0.000   3.722
   27        1.314   2.407   0.000   3.722
   28        1.314   2.407   0.000   3.722
   29        1.314   2.407   0.000   3.722
   30        1.314   2.407   0.000   3.722
   31        1.314   2.407   0.000   3.722
   32        1.314   2.407   0.000   3.722
   33        0.259   6.201   8.916  15.376
   34        0.259   6.201   8.916  15.376
   35        0.259   6.201   8.916  15.376
   36        0.259   6.201   8.916  15.376
   37        0.259   6.201   8.917  15.376
   38        0.259   6.201   8.917  15.376
   39        0.259   6.201   8.917  15.376
   40        0.259   6.201   8.917  15.376
   41        0.259   6.201   8.916  15.376
   42        0.259   6.201   8.916  15.376
   43        0.259   6.201   8.916  15.376
   44        0.259   6.201   8.916  15.376
   45        0.259   6.201   8.917  15.376
   46        0.259   6.201   8.917  15.376
   47        0.259   6.201   8.917  15.376
   48        0.259   6.201   8.917  15.376
   49        0.348   6.347   5.822  12.517
   50        0.348   6.347   5.822  12.517
   51        0.348   6.347   5.822  12.517
   52        0.348   6.347   5.822  12.517
   53        0.348   6.347   5.822  12.517
   54        0.348   6.347   5.822  12.517
   55        0.348   6.347   5.822  12.517
   56        0.348   6.347   5.822  12.517
   57        0.348   6.347   5.822  12.517
   58        0.348   6.347   5.822  12.517
   59        0.348   6.347   5.822  12.517
   60        0.348   6.347   5.822  12.517
   61        0.348   6.347   5.822  12.517
   62        0.348   6.347   5.822  12.517
   63        0.348   6.347   5.822  12.517
   64        0.348   6.347   5.822  12.517
--------------------------------------------------
tot         51.768 277.811 235.815 565.394
 


 magnetization (x)
 
# of ion       s       p       d       tot
------------------------------------------
    1       -0.001  -0.024   0.000  -0.025
    2       -0.001  -0.024   0.000  -0.025
    3       -0.001  -0.024   0.000  -0.025
    4       -0.001  -0.024   0.000  -0.025
    5       -0.001  -0.024   0.000  -0.025
    6       -0.001  -0.024   0.000  -0.025
    7       -0.001  -0.024   0.000  -0.025
    8       -0.001  -0.024   0.000  -0.025
    9        0.001   0.024   0.000   0.025
   10        0.001   0.024   0.000   0.025
   11        0.001   0.024   0.000   0.025
   12        0.001   0.024   0.000   0.025
   13        0.001   0.024   0.000   0.025
   14        0.001   0.024   0.000   0.025
   15        0.001   0.024   0.000   0.025
   16        0.001   0.024   0.000   0.025
   17       -0.001  -0.024   0.000  -0.025
   18       -0.001  -0.024   0.000  -0.025
   19       -0.001  -0.024   0.000  -0.025
   20       -0.001  -0.024   0.000  -0.025
   21       -0.001  -0.024   0.000  -0.025
   22       -0.001  -0.024   0.000  -0.025
   23       -0.001  -0.024   0.000  -0.025
   24       -0.001  -0.024   0.000  -0.025
   25        0.001   0.024   0.000   0.025
   26        0.001   0.024   0.000   0.025
   27        0.001   0.024   0.000   0.025
   28        0.001   0.024   0.000   0.025
   29        0.001   0.024   0.000   0.025
   30        0.001   0.024   0.000   0.025
   31        0.001   0.024   0.000   0.025
   32        0.001   0.024   0.000   0.025
   33        0.000  -0.000   0.003   0.002
   34        0.000  -0.000   0.003   0.002
   35        0.000  -0.000   0.003   0.002
   36        0.000  -0.000   0.003   0.002
   37       -0.000   0.000  -0.003  -0.003
   38       -0.000   0.000  -0.003  -0.003
   39       -0.000   0.000  -0.003  -0.003
   40       -0.000   0.000  -0.003  -0.003
   41        0.000  -0.000   0.003   0.002
   42        0.000  -0.000   0.003   0.002
   43        0.000  -0.000   0.003   0.002
   44        0.000  -0.000   0.003   0.002
   45       -0.000   0.000  -0.003  -0.003
   46       -0.000   0.000  -0.003  -0.003
   47       -0.000   0.000  -0.003  -0.003
   48       -0.000   0.000  -0.003  -0.003
   49        0.020   0.053   3.668   3.741
   50        0.020   0.053   3.668   3.741
   51        0.020   0.053   3.668   3.741
   52        0.020   0.053   3.668   3.741
   53       -0.020  -0.053  -3.668  -3.741
   54       -0.020  -0.053  -3.668  -3.741
   55       -0.020  -0.053  -3.668  -3.741
   56       -0.020  -0.053  -3.668  -3.741
   57        0.020   0.053   3.668   3.741
   58        0.020   0.053   3.668   3.741
   59        0.020   0.053   3.668   3.741
   60        0.020   0.053   3.668   3.741
   61       -0.020  -0.053  -3.668  -3.741
   62       -0.020  -0.053  -3.668  -3.741
   63       -0.020  -0.053  -3.668  -3.741
   64       -0.020  -0.053  -3.668  -3.741
--------------------------------------------------
tot         -0.002   0.002  -0.001  -0.001
 
 BZINTS: Fermi energy:  5.179385;688.000000 electrons
         Band energy:***********;  BLOECHL correction:  0.000000

 total amount of memory used by VASP MPI-rank0   300225. kBytes
=======================================================================

   base      :      30000. kBytes
   nonl-proj :     174956. kBytes
   fftplans  :       4588. kBytes
   grid      :      69719. kBytes
   one-center:       1990. kBytes
   wavefun   :      18972. kBytes
 
  
  
 General timing and accounting informations for this job:
 ========================================================
  
                  Total CPU time used (sec):     3857.215
                            User time (sec):     3847.201
                          System time (sec):       10.014
                         Elapsed time (sec):     3882.182
  
                   Maximum memory used (kb):      662824.
                   Average memory used (kb):           0.
  
                          Minor page faults:       697901
                          Major page faults:         5735
                 Voluntary context switches:         7042
