 vasp.5.4.4.18Apr17-6-g9f103f2a35 (build Oct 30 2023 17:30:16) complex          
  
 executed on             LinuxIFC date 2024.06.27  03:38:30
 running on  256 total cores
 distrk:  each k-point on  256 cores,    1 groups
 distr:  one band on NCORES_PER_BAND=   1 cores,  256 groups


--------------------------------------------------------------------------------------------------------


 INCAR:
 POTCAR:    PAW_PBE S 06Sep2000                   
 POTCAR:     PAW_PBE Cu_pv 06Sep2000              
 POTCAR:     PAW_PBE Fe_pv 02Aug2007              

 ----------------------------------------------------------------------------- 
|                                                                             |
|           W    W    AA    RRRRR   N    N  II  N    N   GGGG   !!!           |
|           W    W   A  A   R    R  NN   N  II  NN   N  G    G  !!!           |
|           W    W  A    A  R    R  N N  N  II  N N  N  G       !!!           |
|           W WW W  AAAAAA  RRRRR   N  N N  II  N  N N  G  GGG   !            |
|           WW  WW  A    A  R   R   N   NN  II  N   NN  G    G                |
|           W    W  A    A  R    R  N    N  II  N    N   GGGG   !!!           |
|                                                                             |
|      For optimal performance we recommend to set                            |
|        NCORE= 4 - approx SQRT( number of cores)                             |
|      NCORE specifies how many cores store one orbital (NPAR=cpu/NCORE).     |
|      This setting can  greatly improve the performance of VASP for DFT.     |
|      The default,   NCORE=1            might be grossly inefficient         |
|      on modern multi-core architectures or massively parallel machines.     |
|      Do your own testing !!!!                                               |
|      Unfortunately you need to use the default for GW and RPA calculations. |
|      (for HF NCORE is supported but not extensively tested yet)             |
|                                                                             |
 ----------------------------------------------------------------------------- 

 POTCAR:    PAW_PBE S 06Sep2000                   
   SHA256 =  0fc7481fb0695f01bdc6462160264c5c84044ae9ec85a907d398b887a2bc3132 S/
   COPYR  = (c) Copyright 06Sep2000 Georg Kresse                                
   COPYR  = This file is part of the software VASP. Any use, copying, and all ot
   COPYR  = If you do not have a valid VASP license, you may not use, copy or di
   VRHFIN =S : s2p4                                                             
   LEXCH  = PE                                                                  
   EATOM  =   276.8230 eV,   20.3459 Ry                                         
                                                                                
   TITEL  = PAW_PBE S 06Sep2000                                                 
   LULTRA =        F    use ultrasoft PP ?                                      
   IUNSCR =        1    unscreen: 0-lin 1-nonlin 2-no                           
   RPACOR =    1.500    partial core radius                                     
   POMASS =   32.066; ZVAL   =    6.000    mass and valenz                      
   RCORE  =    1.900    outmost cutoff radius                                   
   RWIGS  =    2.200; RWIGS  =    1.164    wigner-seitz radius (au A)           
   ENMAX  =  258.689; ENMIN  =  194.016 eV                                      
   ICORE  =        2    local potential                                         
   LCOR   =        T    correct aug charges                                     
   LPAW   =        T    paw PP                                                  
   EAUG   =  335.092                                                            
   DEXC   =    0.000                                                            
   RMAX   =    1.942    core radius for proj-oper                               
   RAUG   =    1.300    factor for augmentation sphere                          
   RDEP   =    1.954    radius for radial grids                                 
   RDEPT  =    1.744    core radius for aug-charge                              
                                                                                
   Atomic configuration                                                         
    6 entries                                                                   
     n  l   j            E        occ.                                          
     1  0  0.50     -2405.8406   2.0000                                         
     2  0  0.50      -211.7007   2.0000                                         
     2  1  1.50      -156.4958   6.0000                                         
     3  0  0.50       -17.2562   2.0000                                         
     3  1  0.50        -7.0085   4.0000                                         
     3  2  1.50        -6.8029   0.0000                                         
   Description                                                                  
     l       E           TYP  RCUT    TYP  RCUT                                 
     0    -17.2561641     23  1.900                                             
     0    -15.8743224     23  1.900                                             
     1     -7.0085400     23  1.900                                             
     1     -2.7779785     23  1.900                                             
     2     -6.8029130     23  1.900                                             
  local pseudopotential read in
  partial core-charges read in
  partial kinetic energy density read in
  atomic valenz-charges read in
  non local Contribution for L=           0  read in
    real space projection operators read in
  non local Contribution for L=           0  read in
    real space projection operators read in
  non local Contribution for L=           1  read in
    real space projection operators read in
  non local Contribution for L=           1  read in
    real space projection operators read in
    PAW grid and wavefunctions read in
 
   number of l-projection  operators is LMAX  =           4
   number of lm-projection operators is LMMAX =           8
 
 POTCAR:     PAW_PBE Cu_pv 06Sep2000              
   SHA256 =  cb7b504e2ea725fe1f25c85a9ac77d4012ce94cd394135b722c4e25ec297f1cb Cu
   COPYR  = (c) Copyright 06Sep2000 Georg Kresse                                
   COPYR  = This file is part of the software VASP. Any use, copying, and all ot
   COPYR  = If you do not have a valid VASP license, you may not use, copy or di
   VRHFIN =Cu: d10 p1                                                           
   LEXCH  = PE                                                                  
   EATOM  =  4120.1201 eV,  302.8203 Ry                                         
                                                                                
   TITEL  = PAW_PBE Cu_pv 06Sep2000                                             
   LULTRA =        F    use ultrasoft PP ?                                      
   IUNSCR =        1    unscreen: 0-lin 1-nonlin 2-no                           
   RPACOR =    1.500    partial core radius                                     
   POMASS =   63.546; ZVAL   =   17.000    mass and valenz                      
   RCORE  =    2.000    outmost cutoff radius                                   
   RWIGS  =    2.000; RWIGS  =    1.058    wigner-seitz radius (au A)           
   ENMAX  =  368.648; ENMIN  =  276.486 eV                                      
   RCLOC  =    1.304    cutoff for local pot                                    
   LCOR   =        T    correct aug charges                                     
   LPAW   =        T    paw PP                                                  
   EAUG   =  758.233                                                            
   DEXC   =    0.000                                                            
   RMAX   =    2.046    core radius for proj-oper                               
   RAUG   =    1.300    factor for augmentation sphere                          
   RDEP   =    2.025    radius for radial grids                                 
   RDEPT  =    1.558    core radius for aug-charge                              
                                                                                
   Atomic configuration                                                         
    8 entries                                                                   
     n  l   j            E        occ.                                          
     1  0  0.50     -8850.2467   2.0000                                         
     2  0  0.50     -1062.3498   2.0000                                         
     2  1  1.50      -916.8226   6.0000                                         
     3  0  0.50      -114.6929   2.0000                                         
     3  1  1.50       -72.1325   6.0000                                         
     3  2  2.50        -5.0394  10.0000                                         
     4  0  0.50        -4.6097   1.0000                                         
     4  3  2.50        -1.3606   0.0000                                         
   Description                                                                  
     l       E           TYP  RCUT    TYP  RCUT                                 
     1    -72.1324777     23  1.700                                             
     1     -1.3605826     23  1.700                                             
     2     -5.0393776     23  2.000                                             
     2     -6.3999602     23  2.000                                             
     0     -4.6097062     23  1.800                                             
     0     14.1620818     23  1.800                                             
  local pseudopotential read in
  partial core-charges read in
  partial kinetic energy density read in
  atomic valenz-charges read in
  non local Contribution for L=           1  read in
    real space projection operators read in
  non local Contribution for L=           1  read in
    real space projection operators read in
  non local Contribution for L=           2  read in
    real space projection operators read in
  non local Contribution for L=           2  read in
    real space projection operators read in
  non local Contribution for L=           0  read in
    real space projection operators read in
  non local Contribution for L=           0  read in
    real space projection operators read in
    PAW grid and wavefunctions read in
 
   number of l-projection  operators is LMAX  =           6
   number of lm-projection operators is LMMAX =          18
 
 POTCAR:     PAW_PBE Fe_pv 02Aug2007              
   SHA256 =  5d22e414b1f82158bf2c7ecb8b97b28fd0923e48cadc1c3bf74d524558f5dd32 Fe
   COPYR  = (c) Copyright 02Aug2007 Georg Kresse                                
   COPYR  = This file is part of the software VASP. Any use, copying, and all ot
   COPYR  = If you do not have a valid VASP license, you may not use, copy or di
   VRHFIN =Fe:  3pd7s1                                                          
   LEXCH  = PE                                                                  
   EATOM  =  2457.4239 eV,  180.6156 Ry                                         
                                                                                
   TITEL  = PAW_PBE Fe_pv 02Aug2007                                             
   LULTRA =        F    use ultrasoft PP ?                                      
   IUNSCR =        1    unscreen: 0-lin 1-nonlin 2-no                           
   RPACOR =    1.750    partial core radius                                     
   POMASS =   55.847; ZVAL   =   14.000    mass and valenz                      
   RCORE  =    2.200    outmost cutoff radius                                   
   RWIGS  =    2.200; RWIGS  =    1.164    wigner-seitz radius (au A)           
   ENMAX  =  293.238; ENMIN  =  219.928 eV                                      
   ICORE  =        3    local potential                                         
   LCOR   =        T    correct aug charges                                     
   LPAW   =        T    paw PP                                                  
   EAUG   =  578.342                                                            
   DEXC   =    0.000                                                            
   RMAX   =    2.249    core radius for proj-oper                               
   RAUG   =    1.300    factor for augmentation sphere                          
   RDEP   =    2.296    radius for radial grids                                 
   RDEPT  =    1.766    core radius for aug-charge                              
                                                                                
   Atomic configuration                                                         
    8 entries                                                                   
     n  l   j            E        occ.                                          
     1  0  0.50     -6993.8440   2.0000                                         
     2  0  0.50      -814.6047   2.0000                                         
     2  1  1.50      -693.3689   6.0000                                         
     3  0  0.50       -89.4732   2.0000                                         
     3  1  1.50       -55.6373   6.0000                                         
     3  2  2.50        -3.8151   7.0000                                         
     4  0  0.50        -4.2551   1.0000                                         
     4  3  2.50        -1.3606   0.0000                                         
   Description                                                                  
     l       E           TYP  RCUT    TYP  RCUT                                 
     1    -55.6372668     23  2.000                                             
     1     -5.4423304     23  2.000                                             
     2     -3.8151096     23  2.200                                             
     2     -5.1756922     23  2.200                                             
     0     -4.2550951     23  2.200                                             
     0     27.2116520     23  2.200                                             
     3     -1.3605826     23  2.200                                             
  local pseudopotential read in
  partial core-charges read in
  partial kinetic energy density read in
  atomic valenz-charges read in
  non local Contribution for L=           1  read in
    real space projection operators read in
  non local Contribution for L=           1  read in
    real space projection operators read in
  non local Contribution for L=           2  read in
    real space projection operators read in
  non local Contribution for L=           2  read in
    real space projection operators read in
  non local Contribution for L=           0  read in
    real space projection operators read in
  non local Contribution for L=           0  read in
    real space projection operators read in
    PAW grid and wavefunctions read in
 
   number of l-projection  operators is LMAX  =           6
   number of lm-projection operators is LMMAX =          18
 

 ----------------------------------------------------------------------------- 
|                                                                             |
|  ADVICE TO THIS USER RUNNING 'VASP/VAMP'   (HEAR YOUR MASTER'S VOICE ...):  |
|                                                                             |
|      You have a (more or less) 'large supercell' and for larger cells       |
|      it might be more efficient to use real space projection opertators     |
|      So try LREAL= Auto  in the INCAR   file.                               |
|      Mind:          For very  accurate calculation you might also keep the  |
|      reciprocal projection scheme          (i.e. LREAL=.FALSE.)             |
|                                                                             |
 ----------------------------------------------------------------------------- 


 ----------------------------------------------------------------------------- 
|                                                                             |
|  ADVICE TO THIS USER RUNNING 'VASP/VAMP'   (HEAR YOUR MASTER'S VOICE ...):  |
|                                                                             |
|      You enforced a specific xc-type in the INCAR file,                     |
|      a different type was found on the POTCAR file                          |
|          I HOPE YOU KNOW, WHAT YOU ARE  DOING                               |
|                                                                             |
 ----------------------------------------------------------------------------- 

  PAW_PBE S 06Sep2000                   :
 energy of atom  1       EATOM= -276.8230
 kinetic energy error for atom=    0.0007 (will be added to EATOM!!)
   PAW_PBE Cu_pv 06Sep2000              :
 energy of atom  2       EATOM=-4120.1201
 kinetic energy error for atom=    0.0094 (will be added to EATOM!!)
   PAW_PBE Fe_pv 02Aug2007              :
 energy of atom  3       EATOM=-2457.4239
 kinetic energy error for atom=    0.0025 (will be added to EATOM!!)
 
 
 POSCAR: generated by phonopy                    
  positions in direct lattice
  velocities in cartesian coordinates
 exchange correlation table for  LEXCH =       14
   RHO(1)=    0.500       N(1)  =     2000
   RHO(2)=  100.500       N(2)  =     4000
 


--------------------------------------------------------------------------------------------------------


 ion  position               nearest neighbor table
   1  0.126  0.122  0.126-  41 2.26  61 2.27  37 2.27  49 2.29
   2  0.626  0.122  0.126-  42 2.26  62 2.27  38 2.27  50 2.29
   3  0.126  0.622  0.126-  43 2.26  63 2.27  39 2.27  51 2.29
   4  0.626  0.622  0.126-  44 2.26  64 2.27  40 2.27  52 2.29
   5  0.374  0.372  0.124-  39 2.26  52 2.27  41 2.27  62 2.29
   6  0.874  0.372  0.124-  40 2.26  51 2.27  42 2.27  61 2.29
   7  0.374  0.872  0.124-  37 2.26  50 2.27  43 2.27  64 2.29
   8  0.874  0.872  0.124-  38 2.26  49 2.27  44 2.27  63 2.29
   9  0.125  0.372  0.875-  41 2.27  45 2.27  51 2.27  55 2.27
  10  0.625  0.372  0.875-  42 2.27  46 2.27  56 2.27  52 2.27
  11  0.125  0.872  0.875-  43 2.27  47 2.27  49 2.27  53 2.27
  12  0.625  0.872  0.875-  44 2.27  48 2.27  54 2.27  50 2.27
  13  0.375  0.124  0.875-  41 2.26  46 2.26  50 2.28  53 2.28
  14  0.875  0.124  0.875-  45 2.26  42 2.26  49 2.28  54 2.28
  15  0.375  0.624  0.875-  43 2.26  48 2.26  52 2.28  55 2.28
  16  0.875  0.624  0.875-  47 2.26  44 2.26  51 2.28  56 2.28
  17  0.124  0.122  0.624-  45 2.26  57 2.27  33 2.27  53 2.29
  18  0.624  0.122  0.624-  46 2.26  58 2.27  34 2.27  54 2.29
  19  0.124  0.622  0.624-  47 2.26  59 2.27  35 2.27  55 2.29
  20  0.624  0.622  0.624-  48 2.26  60 2.27  36 2.27  56 2.29
  21  0.376  0.372  0.626-  36 2.26  55 2.27  46 2.27  57 2.29
  22  0.876  0.372  0.626-  35 2.26  56 2.27  45 2.27  58 2.29
  23  0.376  0.872  0.626-  34 2.26  53 2.27  48 2.27  59 2.29
  24  0.876  0.872  0.626-  33 2.26  54 2.27  47 2.27  60 2.29
  25  0.375  0.122  0.375-  34 2.27  37 2.27  62 2.27  57 2.27
  26  0.875  0.122  0.375-  38 2.27  33 2.27  58 2.27  61 2.27
  27  0.375  0.622  0.375-  36 2.27  39 2.27  64 2.27  59 2.27
  28  0.875  0.622  0.375-  40 2.27  35 2.27  60 2.27  63 2.27
  29  0.125  0.374  0.375-  35 2.26  39 2.26  57 2.28  61 2.28
  30  0.625  0.374  0.375-  36 2.26  40 2.26  58 2.28  62 2.28
  31  0.125  0.874  0.375-  33 2.26  37 2.26  59 2.28  63 2.28
  32  0.625  0.874  0.375-  34 2.26  38 2.26  60 2.28  64 2.28
  33  0.999  0.003  0.500-  24 2.26  31 2.26  26 2.27  17 2.27
  34  0.499  0.003  0.500-  23 2.26  32 2.26  25 2.27  18 2.27
  35  0.999  0.503  0.500-  22 2.26  29 2.26  28 2.27  19 2.27
  36  0.499  0.503  0.500-  21 2.26  30 2.26  27 2.27  20 2.27
  37  0.251  0.003  0.250-   7 2.26  31 2.26  25 2.27   1 2.27
  38  0.751  0.003  0.250-   8 2.26  32 2.26  26 2.27   2 2.27
  39  0.251  0.503  0.250-   5 2.26  29 2.26  27 2.27   3 2.27
  40  0.751  0.503  0.250-   6 2.26  30 2.26  28 2.27   4 2.27
  41  0.249  0.253  1.000-   1 2.26  13 2.26   9 2.27   5 2.27
  42  0.749  0.253  1.000-   2 2.26  14 2.26  10 2.27   6 2.27
  43  0.249  0.753  1.000-   3 2.26  15 2.26  11 2.27   7 2.27
  44  0.749  0.753  1.000-   4 2.26  16 2.26  12 2.27   8 2.27
  45  0.001  0.253  0.750-  17 2.26  14 2.26   9 2.27  22 2.27
  46  0.501  0.253  0.750-  18 2.26  13 2.26  10 2.27  21 2.27
  47  0.001  0.753  0.750-  19 2.26  16 2.26  11 2.27  24 2.27
  48  0.501  0.753  0.750-  20 2.26  15 2.26  12 2.27  23 2.27
  49  0.999  0.003  0.000-   8 2.27  11 2.27  14 2.28   1 2.29
  50  0.499  0.003  0.000-   7 2.27  12 2.27  13 2.28   2 2.29
  51  0.999  0.503  0.000-   6 2.27   9 2.27  16 2.28   3 2.29
  52  0.499  0.503  0.000-   5 2.27  10 2.27  15 2.28   4 2.29
  53  0.251  0.003  0.750-  23 2.27  11 2.27  13 2.28  17 2.29
  54  0.751  0.003  0.750-  24 2.27  12 2.27  14 2.28  18 2.29
  55  0.251  0.503  0.750-  21 2.27   9 2.27  15 2.28  19 2.29
  56  0.751  0.503  0.750-  22 2.27  10 2.27  16 2.28  20 2.29
  57  0.249  0.253  0.500-  17 2.27  25 2.27  29 2.28  21 2.29
  58  0.749  0.253  0.500-  18 2.27  26 2.27  30 2.28  22 2.29
  59  0.249  0.753  0.500-  19 2.27  27 2.27  31 2.28  23 2.29
  60  0.749  0.753  0.500-  20 2.27  28 2.27  32 2.28  24 2.29
  61  0.001  0.253  0.250-   1 2.27  26 2.27  29 2.28   6 2.29
  62  0.501  0.253  0.250-   2 2.27  25 2.27  30 2.28   5 2.29
  63  0.001  0.753  0.250-   3 2.27  28 2.27  31 2.28   8 2.29
  64  0.501  0.753  0.250-   4 2.27  27 2.27  32 2.28   7 2.29
 
  LATTYP: Found a simple monoclinic cell.
 ALAT       =    15.1799220309
 B/A-ratio  =     0.6929413637
 C/A-ratio  =     1.5687001298
 COS(beta)  =    -0.9531639993
  
  Lattice vectors:
  
 A1 = ( -11.0607919434,   0.0000000000, -10.3965818637)
 A2 = (   0.0000000000, -10.5187958726,   0.0000000000)
 A3 = (  11.6056537110,   0.0000000000,  20.7931637274)


Analysis of symmetry for initial positions (statically):
=====================================================================
 Subroutine PRICEL returns following result:
 
  LATTYP: Found a simple monoclinic cell.
 ALAT       =    11.9063728299
 B/A-ratio  =     0.4417296528
 C/A-ratio  =     1.8259538891
 COS(beta)  =    -0.9774464822
  
  Lattice vectors:
  
 A1 = (  -5.8028268555,   0.0000000000, -10.3965818637)
 A2 = (   0.0000000000,  -5.2593979363,   0.0000000000)
 A3 = (   6.3476886231,   0.0000000000,  20.7931637274)
 
   4 primitive cells build up your supercell.
 

 Routine SETGRP: Setting up the symmetry group for a 
 simple monoclinic supercell.


 Subroutine GETGRP returns: Found  2 space group operations
 (whereof  1 operations were pure point group operations)
 out of a pool of  4 trial point group operations.


The static configuration has the point symmetry C_1 .
 The point group associated with its full space group is C_2 .


Analysis of symmetry for dynamics (positions and initial velocities):
=====================================================================
 Subroutine PRICEL returns following result:
 
  LATTYP: Found a simple monoclinic cell.
 ALAT       =    11.9063728299
 B/A-ratio  =     0.4417296528
 C/A-ratio  =     1.8259538891
 COS(beta)  =    -0.9774464822
  
  Lattice vectors:
  
 A1 = (  -5.8028268555,   0.0000000000, -10.3965818637)
 A2 = (   0.0000000000,  -5.2593979363,   0.0000000000)
 A3 = (   6.3476886231,   0.0000000000,  20.7931637274)
 
   4 primitive cells build up your supercell.
 

 Routine SETGRP: Setting up the symmetry group for a 
 simple monoclinic supercell.


 Subroutine GETGRP returns: Found  2 space group operations
 (whereof  1 operations were pure point group operations)
 out of a pool of  4 trial point group operations.


The dynamic configuration has the point symmetry C_1 .
 The point group associated with its full space group is C_2 .


Analysis of structural, dynamic, and magnetic symmetry:
=====================================================================
 Subroutine PRICEL returns following result:
 
  LATTYP: Found a simple monoclinic cell.
 ALAT       =    11.9063728299
 B/A-ratio  =     0.4417296528
 C/A-ratio  =     1.8259538891
 COS(beta)  =    -0.9774464822
  
  Lattice vectors:
  
 A1 = (  -5.8028268555,   0.0000000000, -10.3965818637)
 A2 = (   0.0000000000,  -5.2593979363,   0.0000000000)
 A3 = (   6.3476886231,   0.0000000000,  20.7931637274)
 
   4 primitive cells build up your supercell.
 

 Routine SETGRP: Setting up the symmetry group for a 
 simple monoclinic supercell.


 Subroutine GETGRP returns: Found  2 space group operations
 (whereof  1 operations were pure point group operations)
 out of a pool of  4 trial point group operations.


The magnetic configuration has the point symmetry C_1 .
 The point group associated with its full space group is C_2 .


 Subroutine INISYM returns: Found  2 space group operations
 (whereof  1 operations are pure point group operations),
 and found     4 'primitive' translations

 
 
 KPOINTS: Automatic mesh                          

Automatic generation of k-mesh.
Space group operators:
 irot       det(A)        alpha          n_x          n_y          n_z        tau_x        tau_y        tau_z
    1     1.000000     0.000000     1.000000     0.000000     0.000000     0.000000     0.000000     0.000000
    2     1.000000   179.999999     0.000000     1.000000     0.000000    -0.250000     0.000000    -0.250000
 
 Subroutine IBZKPT returns following result:
 ===========================================
 
 Found     30 irreducible k-points:
 
 Following reciprocal coordinates:
            Coordinates               Weight
  0.000000  0.000000  0.000000      1.000000
  0.250000  0.000000  0.000000      2.000000
  0.500000  0.000000  0.000000      1.000000
  0.000000  0.250000  0.000000      2.000000
  0.250000  0.250000  0.000000      4.000000
  0.500000  0.250000  0.000000      2.000000
  0.000000  0.500000  0.000000      1.000000
  0.250000  0.500000  0.000000      2.000000
  0.500000  0.500000  0.000000      1.000000
  0.000000  0.000000  0.250000      2.000000
  0.250000  0.000000  0.250000      2.000000
  0.500000  0.000000  0.250000      2.000000
 -0.250000  0.000000  0.250000      2.000000
  0.000000  0.250000  0.250000      4.000000
  0.250000  0.250000  0.250000      4.000000
  0.500000  0.250000  0.250000      4.000000
 -0.250000  0.250000  0.250000      4.000000
  0.000000  0.500000  0.250000      2.000000
  0.250000  0.500000  0.250000      2.000000
  0.500000  0.500000  0.250000      2.000000
 -0.250000  0.500000  0.250000      2.000000
  0.000000  0.000000  0.500000      1.000000
  0.250000  0.000000  0.500000      2.000000
  0.500000  0.000000  0.500000      1.000000
  0.000000  0.250000  0.500000      2.000000
  0.250000  0.250000  0.500000      4.000000
  0.500000  0.250000  0.500000      2.000000
  0.000000  0.500000  0.500000      1.000000
  0.250000  0.500000  0.500000      2.000000
  0.500000  0.500000  0.500000      1.000000
 
 Following cartesian coordinates:
            Coordinates               Weight
  0.000000  0.000000  0.000000      1.000000
  0.023773  0.000000 -0.001246      2.000000
  0.047547  0.000000 -0.002492      1.000000
  0.000000  0.023767  0.000000      2.000000
  0.023773  0.023767 -0.001246      4.000000
  0.047547  0.023767 -0.002492      2.000000
  0.000000  0.047534  0.000000      1.000000
  0.023773  0.047534 -0.001246      2.000000
  0.047547  0.047534 -0.002492      1.000000
  0.000000  0.000000  0.024046      2.000000
  0.023773  0.000000  0.022800      2.000000
  0.047547  0.000000  0.021555      2.000000
 -0.023773  0.000000  0.025292      2.000000
  0.000000  0.023767  0.024046      4.000000
  0.023773  0.023767  0.022800      4.000000
  0.047547  0.023767  0.021555      4.000000
 -0.023773  0.023767  0.025292      4.000000
  0.000000  0.047534  0.024046      2.000000
  0.023773  0.047534  0.022800      2.000000
  0.047547  0.047534  0.021555      2.000000
 -0.023773  0.047534  0.025292      2.000000
  0.000000  0.000000  0.048093      1.000000
  0.023773  0.000000  0.046847      2.000000
  0.047547  0.000000  0.045601      1.000000
  0.000000  0.023767  0.048093      2.000000
  0.023773  0.023767  0.046847      4.000000
  0.047547  0.023767  0.045601      2.000000
  0.000000  0.047534  0.048093      1.000000
  0.023773  0.047534  0.046847      2.000000
  0.047547  0.047534  0.045601      1.000000
 
 TETIRR: Found    192 inequivalent tetrahedra from      384
 
 Subroutine IBZKPT_HF returns following result:
 ==============================================
 
 Found     64 k-points in 1st BZ
 the following     64 k-points will be used (e.g. in the exchange kernel)
 Following reciprocal coordinates:   # in IRBZ
  0.000000  0.000000  0.000000    0.01562500   1 t-inv F
  0.250000  0.000000  0.000000    0.01562500   2 t-inv F
  0.500000  0.000000  0.000000    0.01562500   3 t-inv F
  0.000000  0.250000  0.000000    0.01562500   4 t-inv F
  0.250000  0.250000  0.000000    0.01562500   5 t-inv F
  0.500000  0.250000  0.000000    0.01562500   6 t-inv F
  0.000000  0.500000  0.000000    0.01562500   7 t-inv F
  0.250000  0.500000  0.000000    0.01562500   8 t-inv F
  0.500000  0.500000  0.000000    0.01562500   9 t-inv F
  0.000000  0.000000  0.250000    0.01562500  10 t-inv F
  0.250000  0.000000  0.250000    0.01562500  11 t-inv F
  0.500000  0.000000  0.250000    0.01562500  12 t-inv F
 -0.250000  0.000000  0.250000    0.01562500  13 t-inv F
  0.000000  0.250000  0.250000    0.01562500  14 t-inv F
  0.250000  0.250000  0.250000    0.01562500  15 t-inv F
  0.500000  0.250000  0.250000    0.01562500  16 t-inv F
 -0.250000  0.250000  0.250000    0.01562500  17 t-inv F
  0.000000  0.500000  0.250000    0.01562500  18 t-inv F
  0.250000  0.500000  0.250000    0.01562500  19 t-inv F
  0.500000  0.500000  0.250000    0.01562500  20 t-inv F
 -0.250000  0.500000  0.250000    0.01562500  21 t-inv F
  0.000000  0.000000  0.500000    0.01562500  22 t-inv F
  0.250000  0.000000  0.500000    0.01562500  23 t-inv F
  0.500000  0.000000  0.500000    0.01562500  24 t-inv F
  0.000000  0.250000  0.500000    0.01562500  25 t-inv F
  0.250000  0.250000  0.500000    0.01562500  26 t-inv F
  0.500000  0.250000  0.500000    0.01562500  27 t-inv F
  0.000000  0.500000  0.500000    0.01562500  28 t-inv F
  0.250000  0.500000  0.500000    0.01562500  29 t-inv F
  0.500000  0.500000  0.500000    0.01562500  30 t-inv F
 -0.250000  0.000000 -0.000000    0.01562500   2 t-inv F spinflp
 -0.250000  0.250000 -0.000000    0.01562500   5 t-inv F spinflp
 -0.250000  0.500000 -0.000000    0.01562500   8 t-inv F spinflp
  0.000000  0.000000 -0.250000    0.01562500  10 t-inv F spinflp
 -0.250000  0.000000 -0.250000    0.01562500  11 t-inv F spinflp
 -0.500000  0.000000 -0.250000    0.01562500  12 t-inv F spinflp
  0.250000  0.000000 -0.250000    0.01562500  13 t-inv F spinflp
  0.000000  0.250000 -0.250000    0.01562500  14 t-inv F spinflp
 -0.250000  0.250000 -0.250000    0.01562500  15 t-inv F spinflp
 -0.500000  0.250000 -0.250000    0.01562500  16 t-inv F spinflp
  0.250000  0.250000 -0.250000    0.01562500  17 t-inv F spinflp
  0.000000  0.500000 -0.250000    0.01562500  18 t-inv F spinflp
 -0.250000  0.500000 -0.250000    0.01562500  19 t-inv F spinflp
 -0.500000  0.500000 -0.250000    0.01562500  20 t-inv F spinflp
  0.250000  0.500000 -0.250000    0.01562500  21 t-inv F spinflp
 -0.250000  0.000000 -0.500000    0.01562500  23 t-inv F spinflp
 -0.250000  0.250000 -0.500000    0.01562500  26 t-inv F spinflp
 -0.250000  0.500000 -0.500000    0.01562500  29 t-inv F spinflp
  0.000000 -0.250000  0.000000    0.01562500   4 t-inv T
 -0.250000 -0.250000 -0.000000    0.01562500   5 t-inv T
  0.250000 -0.250000  0.000000    0.01562500   5 t-inv T spinflp
 -0.500000 -0.250000 -0.000000    0.01562500   6 t-inv T
  0.000000 -0.250000 -0.250000    0.01562500  14 t-inv T
  0.000000 -0.250000  0.250000    0.01562500  14 t-inv T spinflp
 -0.250000 -0.250000 -0.250000    0.01562500  15 t-inv T
  0.250000 -0.250000  0.250000    0.01562500  15 t-inv T spinflp
 -0.500000 -0.250000 -0.250000    0.01562500  16 t-inv T
  0.500000 -0.250000  0.250000    0.01562500  16 t-inv T spinflp
  0.250000 -0.250000 -0.250000    0.01562500  17 t-inv T
 -0.250000 -0.250000  0.250000    0.01562500  17 t-inv T spinflp
  0.000000 -0.250000 -0.500000    0.01562500  25 t-inv T
 -0.250000 -0.250000 -0.500000    0.01562500  26 t-inv T
  0.250000 -0.250000  0.500000    0.01562500  26 t-inv T spinflp
 -0.500000 -0.250000 -0.500000    0.01562500  27 t-inv T


--------------------------------------------------------------------------------------------------------




 Dimension of arrays:
   k-points           NKPTS =     30   k-points in BZ     NKDIM =     30   number of bands    NBANDS=    512
   number of dos      NEDOS =    301   number of ions     NIONS =     64
   non local maximal  LDIM  =      6   non local SUM 2l+1 LMDIM =     18
   total plane-waves  NPLWV = 829440
   max r-space proj   IRMAX =      1   max aug-charges    IRDMAX=  22920
   dimension x,y,z NGX =    96 NGY =   96 NGZ =   90
   dimension x,y,z NGXF=   192 NGYF=  192 NGZF=  180
   support grid    NGXF=   192 NGYF=  192 NGZF=  180
   ions per type =              32  16  16
   NGX,Y,Z   is equivalent  to a cutoff of  15.18, 15.17, 14.37 a.u.
   NGXF,Y,Z  is equivalent  to a cutoff of  30.35, 30.34, 28.74 a.u.

 SYSTEM =  CuFeS2                                  
 POSCAR =  generated by phonopy                    

 Startparameter for this run:
   NWRITE =      2    write-flag & timer
   PREC   = accura    normal or accurate (medium, high low for compatibility)
   ISTART =      1    job   : 0-new  1-cont  2-samecut
   ICHARG =      1    charge: 1-file 2-atom 10-const
   ISPIN  =      2    spin polarized calculation?
   LNONCOLLINEAR =      F non collinear calculations
   LSORBIT =      F    spin-orbit coupling
   INIWAV =      1    electr: 0-lowe 1-rand  2-diag
   LASPH  =      F    aspherical Exc in radial PAW
   METAGGA=      F    non-selfconsistent MetaGGA calc.

 Electronic Relaxation 1
   ENCUT  =  700.0 eV  51.45 Ry    7.17 a.u.  22.69 22.69 22.46*2*pi/ulx,y,z
   ENINI  =  700.0     initial cutoff
   ENAUG  =  758.2 eV  augmentation charge cutoff
   NELM   =    500;   NELMIN=  2; NELMDL=  0     # of ELM steps 
   EDIFF  = 0.1E-07   stopping-criterion for ELM
   LREAL  =      F    real-space projection
   NLSPLINE    = F    spline interpolate recip. space projectors
   LCOMPAT=      F    compatible to vasp.4.4
   GGA_COMPAT  = T    GGA compatible to vasp.4.4-vasp.4.6
   LMAXPAW     = -100 max onsite density
   LMAXMIX     =    4 max onsite mixed and CHGCAR
   VOSKOWN=      0    Vosko Wilk Nusair interpolation
   ROPT   =    0.00000   0.00000   0.00000
 Ionic relaxation
   EDIFFG = -.1E-04   stopping-criterion for IOM
   NSW    =      0    number of steps for IOM
   NBLOCK =      1;   KBLOCK =      1    inner block; outer block 
   IBRION =     -1    ionic relax: 0-MD 1-quasi-New 2-CG
   NFREE  =      0    steps in history (QN), initial steepest desc. (CG)
   ISIF   =      2    stress and relaxation
   IWAVPR =     10    prediction:  0-non 1-charg 2-wave 3-comb
   ISYM   =      2    0-nonsym 1-usesym 2-fastsym
   LCORR  =      T    Harris-Foulkes like correction to forces

   POTIM  = 0.5000    time-step for ionic-motion
   TEIN   =    0.0    initial temperature
   TEBEG  =    0.0;   TEEND  =   0.0 temperature during run
   SMASS  =  -3.00    Nose mass-parameter (am)
   estimated Nose-frequenzy (Omega)   =  0.10E-29 period in steps =****** mass=  -0.253E-26a.u.
   SCALEE = 1.0000    scale energy and forces
   NPACO  =    256;   APACO  = 16.0  distance and # of slots for P.C.
   PSTRESS=    0.0 pullay stress

  Mass of Ions in am
   POMASS =  32.07 63.55 55.85
  Ionic Valenz
   ZVAL   =   6.00 17.00 14.00
  Atomic Wigner-Seitz radii
   RWIGS  =  -1.00 -1.00 -1.00
  virtual crystal weights 
   VCA    =   1.00  1.00  1.00
   NELECT =     688.0000    total number of electrons
   NUPDOWN=      -1.0000    fix difference up-down

 DOS related values:
   EMIN   =  10.00;   EMAX   =-10.00  energy-range for DOS
   EFERMI =   0.00
   ISMEAR =    -5;   SIGMA  =   0.03  broadening in eV -4-tet -1-fermi 0-gaus

 Electronic relaxation 2 (details)
   IALGO  =     38    algorithm
   LDIAG  =      T    sub-space diagonalisation (order eigenvalues)
   LSUBROT=      F    optimize rotation matrix (better conditioning)
   TURBO    =      0    0=normal 1=particle mesh
   IRESTART =      0    0=no restart 2=restart with 2 vectors
   NREBOOT  =      0    no. of reboots
   NMIN     =      0    reboot dimension
   EREF     =   0.00    reference energy to select bands
   IMIX   =      4    mixing-type and parameters
     AMIX     =   0.40;   BMIX     =  1.00
     AMIX_MAG =   1.60;   BMIX_MAG =  1.00
     AMIN     =   0.10
     WC   =   100.;   INIMIX=   1;  MIXPRE=   1;  MAXMIX= -45

 Intra band minimization:
   WEIMIN = 0.0000     energy-eigenvalue tresh-hold
   EBREAK =  0.49E-11  absolut break condition
   DEPER  =   0.30     relativ break condition  

   TIME   =   0.40     timestep for ELM

  volume/ion in A,a.u.               =      17.97       121.26
  Fermi-wavevector in a.u.,A,eV,Ry     =   1.379440  2.606764 25.889918  1.902855
  Thomas-Fermi vector in A             =   2.504409
 
 Write flags
   LWAVE        =      T    write WAVECAR
   LDOWNSAMPLE  =      F    k-point downsampling of WAVECAR
   LCHARG       =      T    write CHGCAR
   LVTOT        =      F    write LOCPOT, total local potential
   LVHAR        =      F    write LOCPOT, Hartree potential only
   LELF         =      F    write electronic localiz. function (ELF)
   LORBIT       =     11    0 simple, 1 ext, 2 COOP (PROOUT), +10 PAW based schemes


 Dipole corrections
   LMONO  =      F    monopole corrections only (constant potential shift)
   LDIPOL =      F    correct potential (dipole corrections)
   IDIPOL =      0    1-x, 2-y, 3-z, 4-all directions 
   EPSILON=  1.0000000 bulk dielectric constant

 LDA+U is selected, type is set to LDAUTYPE =  2
   angular momentum for each species LDAUL =     2    2    2
   U (eV)           for each species LDAUU =   0.0  0.1  4.7
   J (eV)           for each species LDAUJ =   0.0  0.0  0.0
 Exchange correlation treatment:
   GGA     =    PS    GGA type
   LEXCH   =    14    internal setting for exchange type
   VOSKOWN=      0    Vosko Wilk Nusair interpolation
   LHFCALC =     F    Hartree Fock is set to
   LHFONE  =     F    Hartree Fock one center treatment
   AEXX    =    0.0000 exact exchange contribution

 Linear response parameters
   LEPSILON=     T    determine dielectric tensor
   LRPA    =     F    only Hartree local field effects (RPA)
   LNABLA  =     F    use nabla operator in PAW spheres
   LVEL    =     F    velocity operator in full k-point grid
   LINTERFAST=   F  fast interpolation
   KINTER  =     0    interpolate to denser k-point grid
   CSHIFT  =0.1000    complex shift for real part using Kramers Kronig
   OMEGAMAX=  -1.0    maximum frequency
   DEG_THRESHOLD= 0.2000000E-02 threshold for treating states as degnerate
   RTIME   =   -0.100 relaxation time in fs
  (WPLASMAI=    0.000 imaginary part of plasma frequency in eV, 0.658/RTIME)
   DFIELD  = 0.0000000 0.0000000 0.0000000 field for delta impulse in time
 
 Orbital magnetization related:
   ORBITALMAG=     F  switch on orbital magnetization
   LCHIMAG   =     F  perturbation theory with respect to B field
   DQ        =  0.001000  dq finite difference perturbation B field
   LLRAUG    =     F  two centre corrections for induced B field

 PEAD related settings:
   LPEAD      =     T    switch on PEAD
   IPEAD      =     4    finite difference order for dpsi/dk
   LCALCPOL   =     T    calculate macroscopic polarization
   LCALCEPS   =     F    calculate dielectric tensor
   EFIELD_PEAD=    0.0000    0.0000    0.0000
   SKIP_EDOTP =     F
   LRPA       =     F
   SKIP_SCF   =     F


--------------------------------------------------------------------------------------------------------


 Static calculation
 charge density and potential will be updated during run
 spin polarized calculation
 Variant of blocked Davidson
 Davidson routine will perform the subspace rotation
 perform sub-space diagonalisation
    after iterative eigenvector-optimisation
 modified Broyden-mixing scheme, WC =      100.0
 initial mixing is a Kerker type mixing with AMIX =  0.4000 and BMIX =      1.0000
 Hartree-type preconditioning will be used
 using additional bands          168
 reciprocal scheme for non local part
 use partial core corrections
 calculate Harris-corrections to forces 
   (improved forces if not selfconsistent)
 use gradient corrections 
 use of overlap-Matrix (Vanderbilt PP)
 Fermi weights with tetrahedron method with Bloechl corrections


--------------------------------------------------------------------------------------------------------


  energy-cutoff  :      700.00
  volume of cell :     1150.02
      direct lattice vectors                 reciprocal lattice vectors
    10.515930176  0.000000000  0.000000000     0.095093823  0.000000000 -0.004983656
     0.000000000 10.518795873  0.000000000     0.000000000  0.095067916  0.000000000
     0.544861768  0.000000000 10.396581864     0.000000000  0.000000000  0.096185459

  length of vectors
    10.515930176 10.518795873 10.410849571     0.095224324  0.095067916  0.096185459


 
 old parameters found on file WAVECAR:
  energy-cutoff  :      700.00
  volume of cell :     1150.01
      direct lattice vectors                 reciprocal lattice vectors
    10.515930176  0.000000000  0.000000000     0.095093823  0.000000000 -0.004983656
     0.000000000 10.518760290  0.000000000     0.000000000  0.095068237  0.000000000
     0.544861768  0.000000000 10.396581864     0.000000000  0.000000000  0.096185459

  length of vectors

 
 k-points in units of 2pi/SCALE and weight: Automatic mesh                          
   0.00000000  0.00000000  0.00000000       0.016
   0.02377346  0.00000000 -0.00124591       0.031
   0.04754691  0.00000000 -0.00249183       0.016
   0.00000000  0.02376698  0.00000000       0.031
   0.02377346  0.02376698 -0.00124591       0.062
   0.04754691  0.02376698 -0.00249183       0.031
   0.00000000  0.04753396  0.00000000       0.016
   0.02377346  0.04753396 -0.00124591       0.031
   0.04754691  0.04753396 -0.00249183       0.016
   0.00000000  0.00000000  0.02404636       0.031
   0.02377346  0.00000000  0.02280045       0.031
   0.04754691  0.00000000  0.02155454       0.031
  -0.02377346  0.00000000  0.02529228       0.031
   0.00000000  0.02376698  0.02404636       0.062
   0.02377346  0.02376698  0.02280045       0.062
   0.04754691  0.02376698  0.02155454       0.062
  -0.02377346  0.02376698  0.02529228       0.062
   0.00000000  0.04753396  0.02404636       0.031
   0.02377346  0.04753396  0.02280045       0.031
   0.04754691  0.04753396  0.02155454       0.031
  -0.02377346  0.04753396  0.02529228       0.031
   0.00000000  0.00000000  0.04809273       0.016
   0.02377346  0.00000000  0.04684682       0.031
   0.04754691  0.00000000  0.04560090       0.016
   0.00000000  0.02376698  0.04809273       0.031
   0.02377346  0.02376698  0.04684682       0.062
   0.04754691  0.02376698  0.04560090       0.031
   0.00000000  0.04753396  0.04809273       0.016
   0.02377346  0.04753396  0.04684682       0.031
   0.04754691  0.04753396  0.04560090       0.016
 
 k-points in reciprocal lattice and weights: Automatic mesh                          
   0.00000000  0.00000000  0.00000000       0.016
   0.25000000  0.00000000  0.00000000       0.031
   0.50000000  0.00000000  0.00000000       0.016
   0.00000000  0.25000000  0.00000000       0.031
   0.25000000  0.25000000  0.00000000       0.062
   0.50000000  0.25000000  0.00000000       0.031
   0.00000000  0.50000000  0.00000000       0.016
   0.25000000  0.50000000  0.00000000       0.031
   0.50000000  0.50000000  0.00000000       0.016
   0.00000000  0.00000000  0.25000000       0.031
   0.25000000  0.00000000  0.25000000       0.031
   0.50000000  0.00000000  0.25000000       0.031
  -0.25000000  0.00000000  0.25000000       0.031
   0.00000000  0.25000000  0.25000000       0.062
   0.25000000  0.25000000  0.25000000       0.062
   0.50000000  0.25000000  0.25000000       0.062
  -0.25000000  0.25000000  0.25000000       0.062
   0.00000000  0.50000000  0.25000000       0.031
   0.25000000  0.50000000  0.25000000       0.031
   0.50000000  0.50000000  0.25000000       0.031
  -0.25000000  0.50000000  0.25000000       0.031
   0.00000000  0.00000000  0.50000000       0.016
   0.25000000  0.00000000  0.50000000       0.031
   0.50000000  0.00000000  0.50000000       0.016
   0.00000000  0.25000000  0.50000000       0.031
   0.25000000  0.25000000  0.50000000       0.062
   0.50000000  0.25000000  0.50000000       0.031
   0.00000000  0.50000000  0.50000000       0.016
   0.25000000  0.50000000  0.50000000       0.031
   0.50000000  0.50000000  0.50000000       0.016
 
 position of ions in fractional coordinates (direct lattice) 
   0.12621405  0.12171654  0.12551328
   0.62621404  0.12171654  0.12551328
   0.12621405  0.62171654  0.12551328
   0.62621404  0.62171654  0.12551328
   0.37378612  0.37171659  0.12448669
   0.87378612  0.37171659  0.12448669
   0.37378612  0.87171659  0.12448669
   0.87378612  0.87171659  0.12448669
   0.12500000  0.37162991  0.87500000
   0.62500000  0.37162991  0.87500000
   0.12500000  0.87162991  0.87500000
   0.62500000  0.87162991  0.87500000
   0.37500000  0.12377590  0.87500000
   0.87500000  0.12377590  0.87500000
   0.37500000  0.62377589  0.87500000
   0.87500000  0.62377589  0.87500000
   0.12378595  0.12171654  0.62448672
   0.62378596  0.12171654  0.62448672
   0.12378595  0.62171654  0.62448672
   0.62378596  0.62171654  0.62448672
   0.37621388  0.37171659  0.62551331
   0.87621388  0.37171659  0.62551331
   0.37621388  0.87171659  0.62551331
   0.87621388  0.87171659  0.62551331
   0.37500000  0.12162992  0.37500000
   0.87500000  0.12162992  0.37500000
   0.37500000  0.62162993  0.37500000
   0.87500000  0.62162993  0.37500000
   0.12500000  0.37377546  0.37500000
   0.62500000  0.37377546  0.37500000
   0.12500000  0.87377546  0.37500000
   0.62500000  0.87377546  0.37500000
   0.99899366  0.00285983  0.49999189
   0.49899366  0.00285983  0.49999189
   0.99899366  0.50285983  0.49999189
   0.49899366  0.50285983  0.49999189
   0.25100634  0.00285983  0.25000811
   0.75100634  0.00285983  0.25000811
   0.25100634  0.50285983  0.25000811
   0.75100634  0.50285983  0.25000811
   0.24899315  0.25286116  0.99999293
   0.74899315  0.25286116  0.99999293
   0.24899315  0.75286116  0.99999293
   0.74899315  0.75286116  0.99999293
   0.00100685  0.25286116  0.75000707
   0.50100685  0.25286116  0.75000707
   0.00100685  0.75286116  0.75000707
   0.50100685  0.75286116  0.75000707
   0.99948100  0.00272019  0.00014802
   0.49948100  0.00272019  0.00014802
   0.99948100  0.50272019  0.00014802
   0.49948100  0.50272019  0.00014802
   0.25051900  0.00272019  0.74985198
   0.75051900  0.00272019  0.74985198
   0.25051900  0.50272019  0.74985198
   0.75051900  0.50272019  0.74985198
   0.24948087  0.25272009  0.50014809
   0.74948087  0.25272009  0.50014809
   0.24948087  0.75272009  0.50014809
   0.74948087  0.75272009  0.50014809
   0.00051913  0.25272009  0.24985191
   0.50051913  0.25272009  0.24985191
   0.00051913  0.75272009  0.24985191
   0.50051913  0.75272009  0.24985191
 
 position of ions in cartesian coordinates  (Angst):
   1.39564557  1.28031143  1.30490913
   6.65361050  1.28031143  1.30490913
   1.39564557  6.53970937  1.30490913
   6.65361050  6.53970937  1.30490913
   3.99853683  3.91001093  1.29423610
   9.25650192  3.91001093  1.29423610
   3.99853683  9.16940886  1.29423610
   9.25650192  9.16940886  1.29423610
   1.79124532  3.90909916  9.09700913
   7.04921041  3.90909916  9.09700913
   1.79124532  9.16849710  9.09700913
   7.04921041  9.16849710  9.09700913
   4.42022786  1.30197345  9.09700913
   9.67819295  1.30197345  9.09700913
   4.42022786  6.56137123  9.09700913
   9.67819295  6.56137123  9.09700913
   1.64198338  1.28031143  6.49252726
   6.89994855  1.28031143  6.49252726
   1.64198338  6.53970937  6.49252726
   6.89994855  6.53970937  6.49252726
   4.29705713  3.91001093  6.50320029
   9.55502222  3.91001093  6.50320029
   4.29705713  9.16940886  6.50320029
   9.55502222  9.16940886  6.50320029
   4.14779698  1.27940034  3.89871820
   9.40576207  1.27940034  3.89871820
   4.14779698  6.53879836  3.89871820
   9.40576207  6.53879836  3.89871820
   1.51881443  3.93166778  3.89871820
   6.77677952  3.93166778  3.89871820
   1.51881443  9.19106571  3.89871820
   6.77677952  9.19106571  3.89871820
  10.77777402  0.03008200  5.19820663
   5.51980894  0.03008200  5.19820663
  10.77777402  5.28947994  5.19820663
   5.51980894  5.28947994  5.19820663
   2.77578502  0.03008200  2.59922976
   8.03375011  0.03008200  2.59922976
   2.77578502  5.28947994  2.59922976
   8.03375011  5.28947994  2.59922976
   3.16325253  2.65979493 10.39650833
   8.42121762  2.65979493 10.39650833
   3.16325253  7.91919286 10.39650833
   8.42121762  7.91919286 10.39650833
   0.41923811  2.65979493  7.79750993
   5.67720320  2.65979493  7.79750993
   0.41923811  7.91919286  7.79750993
   5.67720320  7.91919286  7.79750993
  10.51055304  0.02861314  0.00153889
   5.25258795  0.02861314  0.00153889
  10.51055304  5.28801107  0.00153889
   5.25258795  5.28801107  0.00153889
   3.04300601  0.02861314  7.79589751
   8.30097110  0.02861314  7.79589751
   3.04300601  5.28801107  7.79589751
   8.30097110  5.28801107  7.79589751
   2.89603494  2.65831106  5.19983059
   8.15400003  2.65831106  5.19983059
   2.89603494  7.91770900  5.19983059
   8.15400003  7.91770900  5.19983059
   0.14159393  2.65831106  2.59760581
   5.39955901  2.65831106  2.59760581
   0.14159393  7.91770900  2.59760581
   5.39955901  7.91770900  2.59760581
 


--------------------------------------------------------------------------------------------------------


 k-point  1 :   0.0000 0.0000 0.0000  plane waves:   48377
 k-point  2 :   0.2500 0.0000 0.0000  plane waves:   48356
 k-point  3 :   0.5000 0.0000 0.0000  plane waves:   48422
 k-point  4 :   0.0000 0.2500 0.0000  plane waves:   48399
 k-point  5 :   0.2500 0.2500 0.0000  plane waves:   48371
 k-point  6 :   0.5000 0.2500 0.0000  plane waves:   48360
 k-point  7 :   0.0000 0.5000 0.0000  plane waves:   48378
 k-point  8 :   0.2500 0.5000 0.0000  plane waves:   48378
 k-point  9 :   0.5000 0.5000 0.0000  plane waves:   48372
 k-point 10 :   0.0000 0.0000 0.2500  plane waves:   48367
 k-point 11 :   0.2500 0.0000 0.2500  plane waves:   48384
 k-point 12 :   0.5000 0.0000 0.2500  plane waves:   48394
 k-point 13 :  -0.2500 0.0000 0.2500  plane waves:   48375
 k-point 14 :   0.0000 0.2500 0.2500  plane waves:   48364
 k-point 15 :   0.2500 0.2500 0.2500  plane waves:   48340
 k-point 16 :   0.5000 0.2500 0.2500  plane waves:   48330
 k-point 17 :  -0.2500 0.2500 0.2500  plane waves:   48361
 k-point 18 :   0.0000 0.5000 0.2500  plane waves:   48386
 k-point 19 :   0.2500 0.5000 0.2500  plane waves:   48318
 k-point 20 :   0.5000 0.5000 0.2500  plane waves:   48372
 k-point 21 :  -0.2500 0.5000 0.2500  plane waves:   48396
 k-point 22 :   0.0000 0.0000 0.5000  plane waves:   48362
 k-point 23 :   0.2500 0.0000 0.5000  plane waves:   48395
 k-point 24 :   0.5000 0.0000 0.5000  plane waves:   48344
 k-point 25 :   0.0000 0.2500 0.5000  plane waves:   48356
 k-point 26 :   0.2500 0.2500 0.5000  plane waves:   48340
 k-point 27 :   0.5000 0.2500 0.5000  plane waves:   48320
 k-point 28 :   0.0000 0.5000 0.5000  plane waves:   48388
 k-point 29 :   0.2500 0.5000 0.5000  plane waves:   48296
 k-point 30 :   0.5000 0.5000 0.5000  plane waves:   48308

 maximum and minimum number of plane-waves per node :     48422    48296

 maximum number of plane-waves:     48422
 maximum index in each direction: 
   IXMAX=   22   IYMAX=   22   IZMAX=   22
   IXMIN=  -23   IYMIN=  -23   IZMIN=  -22


 serial   3D FFT for wavefunctions
 parallel 3D FFT for charge:
    minimum data exchange during FFTs selected (reduces bandwidth)


 total amount of memory used by VASP MPI-rank0   881832. kBytes
=======================================================================

   base      :      30000. kBytes
   nonl-proj :     680181. kBytes
   fftplans  :       4588. kBytes
   grid      :      69719. kBytes
   one-center:       1990. kBytes
   wavefun   :      95354. kBytes
 
     INWAV:  cpu time   59.0824: real time   59.4752
 Broyden mixing: mesh for mixing (old mesh)
   NGX = 45   NGY = 45   NGZ = 45
  (NGX  =192   NGY  =192   NGZ  =180)
  gives a total of  91125 points

 initial charge density was supplied:
 number of electron     688.0000166 magnetization       0.0000000
 keeping initial charge density in first step


--------------------------------------------------------------------------------------------------------


 Maximum index for augmentation-charges          899 (set IRDMAX)


--------------------------------------------------------------------------------------------------------


 First call to EWALD:  gamma=   0.169
 Maximum number of real-space cells 3x 3x 3
 Maximum number of reciprocal cells 3x 3x 3

    FEWALD:  cpu time    0.0034: real time    0.0040


--------------------------------------- Iteration      1(   1)  ---------------------------------------


    POTLOK:  cpu time    0.3965: real time    0.6747
    SETDIJ:  cpu time    0.0146: real time    0.0147
     EDDAV:  cpu time  620.8694: real time  626.1890
 BZINTS: Fermi energy:  5.048656;688.000000 electrons
         Band energy:***********;  BLOECHL correction:  0.000000
       DOS:  cpu time    0.0485: real time    0.0493
    CHARGE:  cpu time    3.8859: real time    4.0343
    MIXING:  cpu time    0.0084: real time    0.0085
    --------------------------------------------
      LOOP:  cpu time  625.2234: real time  630.9706

 eigenvalue-minimisations  : 87040
 total energy-change (2. order) :-0.3278330E+03  (-0.3404155E-05)
 number of electron     688.0000166 magnetization       0.0000000
 augmentation part      282.2272880 magnetization       0.0000000

 Broyden mixing:
  rms(total) = 0.70928E-03    rms(broyden)= 0.70924E-03
  rms(prec ) = 0.86117E-03
  weight for this iteration     100.00

 Free energy of the ion-electron system (eV)
  ---------------------------------------------------
  alpha Z        PSCENC =      2357.48715490
  Ewald energy   TEWEN  =    -62490.93271376
  -Hartree energ DENC   =    -42939.15073654
  -exchange      EXHF   =         0.00000000
  -V(xc)+E(xc)   XCENC  =      3286.46614211
  PAW double counting   =    112243.99661472  -115937.54779489
  entropy T*S    EENTRO =         0.00000000
  eigenvalues    EBANDS =    -10868.21673844
  atomic energy  EATOM  =    114020.06510763
  Solvation  Ediel_sol  =         0.00000000
  ---------------------------------------------------
  free energy    TOTEN  =      -327.83296427 eV

  energy without entropy =     -327.83296427  energy(sigma->0) =     -327.83296427


--------------------------------------------------------------------------------------------------------




--------------------------------------- Iteration      1(   2)  ---------------------------------------


    POTLOK:  cpu time    0.1275: real time    0.1421
    SETDIJ:  cpu time    0.0136: real time    0.0139
     EDDAV:  cpu time  463.7312: real time  467.1549
 BZINTS: Fermi energy:  4.922572;688.000000 electrons
         Band energy:***********;  BLOECHL correction:  0.000000
       DOS:  cpu time    0.0393: real time    0.0394
    CHARGE:  cpu time    3.8600: real time    3.8936
    MIXING:  cpu time    0.0035: real time    0.1697
    --------------------------------------------
      LOOP:  cpu time  467.7748: real time  471.4135

 eigenvalue-minimisations  : 77056
 total energy-change (2. order) : 0.1265056E-05  (-0.2116783E-06)
 number of electron     688.0000166 magnetization       0.0000000
 augmentation part      282.2272936 magnetization       0.0000000

 Broyden mixing:
  rms(total) = 0.50221E-03    rms(broyden)= 0.50220E-03
  rms(prec ) = 0.59397E-03
  weight for this iteration     100.00

 eigenvalues of (default mixing * dielectric matrix)
  average eigenvalue GAMMA=   0.5893
  0.5893

 Free energy of the ion-electron system (eV)
  ---------------------------------------------------
  alpha Z        PSCENC =      2357.48715490
  Ewald energy   TEWEN  =    -62490.93271376
  -Hartree energ DENC   =    -42939.14980639
  -exchange      EXHF   =         0.00000000
  -V(xc)+E(xc)   XCENC  =      3286.46616035
  PAW double counting   =    112243.94721389  -115937.49721679
  entropy T*S    EENTRO =         0.00000000
  eigenvalues    EBANDS =    -10868.21886283
  atomic energy  EATOM  =    114020.06510763
  Solvation  Ediel_sol  =         0.00000000
  ---------------------------------------------------
  free energy    TOTEN  =      -327.83296301 eV

  energy without entropy =     -327.83296301  energy(sigma->0) =     -327.83296301


--------------------------------------------------------------------------------------------------------




--------------------------------------- Iteration      1(   3)  ---------------------------------------


    POTLOK:  cpu time    0.1214: real time    0.1263
    SETDIJ:  cpu time    0.0126: real time    0.0127
     EDDAV:  cpu time  774.0777: real time  779.2633
 BZINTS: Fermi energy:  4.882828;688.000000 electrons
         Band energy:***********;  BLOECHL correction:  0.000000
       DOS:  cpu time    0.0391: real time    0.0393
    CHARGE:  cpu time    3.8577: real time    3.8904
    MIXING:  cpu time    0.0020: real time    0.0489
    --------------------------------------------
      LOOP:  cpu time  778.1105: real time  783.3808

 eigenvalue-minimisations  :103936
 total energy-change (2. order) : 0.2884190E-06  (-0.2491671E-06)
 number of electron     688.0000166 magnetization       0.0000000
 augmentation part      282.2273180 magnetization       0.0000000

 Broyden mixing:
  rms(total) = 0.57800E-03    rms(broyden)= 0.57800E-03
  rms(prec ) = 0.65595E-03
  weight for this iteration     100.00

 eigenvalues of (default mixing * dielectric matrix)
  average eigenvalue GAMMA=   1.0719
  1.8166  0.3272

 Free energy of the ion-electron system (eV)
  ---------------------------------------------------
  alpha Z        PSCENC =      2357.48715490
  Ewald energy   TEWEN  =    -62490.93271376
  -Hartree energ DENC   =    -42939.15573390
  -exchange      EXHF   =         0.00000000
  -V(xc)+E(xc)   XCENC  =      3286.46653266
  PAW double counting   =    112243.93819973  -115937.48794966
  entropy T*S    EENTRO =         0.00000000
  eigenvalues    EBANDS =    -10868.21356032
  atomic energy  EATOM  =    114020.06510763
  Solvation  Ediel_sol  =         0.00000000
  ---------------------------------------------------
  free energy    TOTEN  =      -327.83296272 eV

  energy without entropy =     -327.83296272  energy(sigma->0) =     -327.83296272


--------------------------------------------------------------------------------------------------------




--------------------------------------- Iteration      1(   4)  ---------------------------------------


    POTLOK:  cpu time    0.1250: real time    0.1260
    SETDIJ:  cpu time    0.0127: real time    0.0127
     EDDAV:  cpu time  541.5956: real time  545.4140
 BZINTS: Fermi energy:  5.005431;688.000000 electrons
         Band energy:***********;  BLOECHL correction:  0.000000
       DOS:  cpu time    0.0486: real time    0.0487
    CHARGE:  cpu time    3.9474: real time    3.9796
    MIXING:  cpu time    0.0015: real time    0.0206
    --------------------------------------------
      LOOP:  cpu time  545.7308: real time  549.6016

 eigenvalue-minimisations  : 83456
 total energy-change (2. order) : 0.1984881E-06  (-0.9994150E-07)
 number of electron     688.0000166 magnetization       0.0000000
 augmentation part      282.2273021 magnetization       0.0000000

 Broyden mixing:
  rms(total) = 0.13826E-03    rms(broyden)= 0.13825E-03
  rms(prec ) = 0.16108E-03
  weight for this iteration     100.00

 eigenvalues of (default mixing * dielectric matrix)
  average eigenvalue GAMMA=   0.9605
  1.9155  0.5872  0.3787

 Free energy of the ion-electron system (eV)
  ---------------------------------------------------
  alpha Z        PSCENC =      2357.48715490
  Ewald energy   TEWEN  =    -62490.93271376
  -Hartree energ DENC   =    -42939.15369190
  -exchange      EXHF   =         0.00000000
  -V(xc)+E(xc)   XCENC  =      3286.46637314
  PAW double counting   =    112243.91834057  -115937.46774357
  entropy T*S    EENTRO =         0.00000000
  eigenvalues    EBANDS =    -10868.21578952
  atomic energy  EATOM  =    114020.06510763
  Solvation  Ediel_sol  =         0.00000000
  ---------------------------------------------------
  free energy    TOTEN  =      -327.83296252 eV

  energy without entropy =     -327.83296252  energy(sigma->0) =     -327.83296252


--------------------------------------------------------------------------------------------------------




--------------------------------------- Iteration      1(   5)  ---------------------------------------


    POTLOK:  cpu time    0.1254: real time    0.1264
    SETDIJ:  cpu time    0.0128: real time    0.0128
     EDDAV:  cpu time  663.4819: real time  667.9241
 BZINTS: Fermi energy:  4.965335;688.000000 electrons
         Band energy:***********;  BLOECHL correction:  0.000000
       DOS:  cpu time    0.0468: real time    0.0472
    CHARGE:  cpu time    3.8666: real time    3.8975
    MIXING:  cpu time    0.0018: real time    0.0439
    --------------------------------------------
      LOOP:  cpu time  667.5353: real time  672.0519

 eigenvalue-minimisations  : 91136
 total energy-change (2. order) :-0.7174094E-08  (-0.2268384E-07)
 number of electron     688.0000166 magnetization       0.0000000
 augmentation part      282.2273088 magnetization       0.0000000

 Broyden mixing:
  rms(total) = 0.87135E-04    rms(broyden)= 0.87133E-04
  rms(prec ) = 0.97350E-04
  weight for this iteration     100.00

 eigenvalues of (default mixing * dielectric matrix)
  average eigenvalue GAMMA=   0.8968
  1.8999  0.7959  0.4900  0.4011

 Free energy of the ion-electron system (eV)
  ---------------------------------------------------
  alpha Z        PSCENC =      2357.48715490
  Ewald energy   TEWEN  =    -62490.93271376
  -Hartree energ DENC   =    -42939.15459006
  -exchange      EXHF   =         0.00000000
  -V(xc)+E(xc)   XCENC  =      3286.46642744
  PAW double counting   =    112243.92132728  -115937.47062184
  entropy T*S    EENTRO =         0.00000000
  eigenvalues    EBANDS =    -10868.21505412
  atomic energy  EATOM  =    114020.06510763
  Solvation  Ediel_sol  =         0.00000000
  ---------------------------------------------------
  free energy    TOTEN  =      -327.83296253 eV

  energy without entropy =     -327.83296253  energy(sigma->0) =     -327.83296253


--------------------------------------------------------------------------------------------------------




--------------------------------------- Iteration      1(   6)  ---------------------------------------


    POTLOK:  cpu time    0.1286: real time    0.1300
    SETDIJ:  cpu time    0.0127: real time    0.0127
     EDDAV:  cpu time  464.7328: real time  468.0818
 BZINTS: Fermi energy:  4.950672;688.000000 electrons
         Band energy:***********;  BLOECHL correction:  0.000000
       DOS:  cpu time    0.0468: real time    0.0470
    --------------------------------------------
      LOOP:  cpu time  464.9210: real time  468.2716

 eigenvalue-minimisations  : 75264
 total energy-change (2. order) : 0.7799827E-08  (-0.3728887E-08)
 number of electron     688.0000166 magnetization       0.0000000
 augmentation part      282.2273088 magnetization       0.0000000

 Free energy of the ion-electron system (eV)
  ---------------------------------------------------
  alpha Z        PSCENC =      2357.48715490
  Ewald energy   TEWEN  =    -62490.93271376
  -Hartree energ DENC   =    -42939.15288678
  -exchange      EXHF   =         0.00000000
  -V(xc)+E(xc)   XCENC  =      3286.46630874
  PAW double counting   =    112243.92221546  -115937.47148724
  entropy T*S    EENTRO =         0.00000000
  eigenvalues    EBANDS =    -10868.21666146
  atomic energy  EATOM  =    114020.06510763
  Solvation  Ediel_sol  =         0.00000000
  ---------------------------------------------------
  free energy    TOTEN  =      -327.83296252 eV

  energy without entropy =     -327.83296252  energy(sigma->0) =     -327.83296252


--------------------------------------------------------------------------------------------------------




 average (electrostatic) potential at core
  the test charge radii are     0.9698  0.8297  0.9500
  (the norm of the test charge is              1.0000)
       1 -86.6149       2 -86.6149       3 -86.6149       4 -86.6149       5 -86.6149
       6 -86.6149       7 -86.6149       8 -86.6149       9 -86.6470      10 -86.6470
      11 -86.6470      12 -86.6470      13 -86.5804      14 -86.5804      15 -86.5804
      16 -86.5804      17 -86.6149      18 -86.6149      19 -86.6149      20 -86.6149
      21 -86.6149      22 -86.6149      23 -86.6149      24 -86.6149      25 -86.6470
      26 -86.6470      27 -86.6470      28 -86.6470      29 -86.5804      30 -86.5804
      31 -86.5804      32 -86.5804      33 -80.6928      34 -80.6928      35 -80.6928
      36 -80.6928      37 -80.6928      38 -80.6928      39 -80.6928      40 -80.6928
      41 -80.6928      42 -80.6928      43 -80.6928      44 -80.6928      45 -80.6928
      46 -80.6928      47 -80.6928      48 -80.6928      49 -80.2148      50 -80.2148
      51 -80.2148      52 -80.2148      53 -80.2148      54 -80.2148      55 -80.2148
      56 -80.2148      57 -80.2148      58 -80.2148      59 -80.2148      60 -80.2148
      61 -80.2148      62 -80.2148      63 -80.2148      64 -80.2148
 
 
 
 E-fermi :   4.9507     XC(G=0): -10.4712     alpha+bet :-10.5523


 spin component 1

 k-point     1 :       0.0000    0.0000    0.0000
  band No.  band energies     occupation 
      1     -64.3022      1.00000
      2     -64.3022      1.00000
      3     -64.3022      1.00000
      4     -64.3022      1.00000
      5     -64.3022      1.00000
      6     -64.3022      1.00000
      7     -64.3022      1.00000
      8     -64.3022      1.00000
      9     -64.2750      1.00000
     10     -64.2750      1.00000
     11     -64.2750      1.00000
     12     -64.2750      1.00000
     13     -64.2750      1.00000
     14     -64.2750      1.00000
     15     -64.2750      1.00000
     16     -64.2750      1.00000
     17     -64.2717      1.00000
     18     -64.2717      1.00000
     19     -64.2717      1.00000
     20     -64.2717      1.00000
     21     -64.2717      1.00000
     22     -64.2717      1.00000
     23     -64.2717      1.00000
     24     -64.2717      1.00000
     25     -64.2657      1.00000
     26     -64.2657      1.00000
     27     -64.2657      1.00000
     28     -64.2657      1.00000
     29     -64.2657      1.00000
     30     -64.2657      1.00000
     31     -64.2657      1.00000
     32     -64.2657      1.00000
     33     -64.2540      1.00000
     34     -64.2540      1.00000
     35     -64.2540      1.00000
     36     -64.2540      1.00000
     37     -64.2540      1.00000
     38     -64.2540      1.00000
     39     -64.2540      1.00000
     40     -64.2540      1.00000
     41     -64.2515      1.00000
     42     -64.2515      1.00000
     43     -64.2515      1.00000
     44     -64.2515      1.00000
     45     -64.2515      1.00000
     46     -64.2515      1.00000
     47     -64.2515      1.00000
     48     -64.2515      1.00000
     49     -51.8858      1.00000
     50     -51.8858      1.00000
     51     -51.8858      1.00000
     52     -51.8858      1.00000
     53     -51.8858      1.00000
     54     -51.8858      1.00000
     55     -51.8858      1.00000
     56     -51.8858      1.00000
     57     -51.8288      1.00000
     58     -51.8288      1.00000
     59     -51.8288      1.00000
     60     -51.8288      1.00000
     61     -51.8288      1.00000
     62     -51.8288      1.00000
     63     -51.8288      1.00000
     64     -51.8288      1.00000
     65     -51.8236      1.00000
     66     -51.8236      1.00000
     67     -51.8236      1.00000
     68     -51.8236      1.00000
     69     -51.8236      1.00000
     70     -51.8236      1.00000
     71     -51.8236      1.00000
     72     -51.8236      1.00000
     73     -47.7240      1.00000
     74     -47.7240      1.00000
     75     -47.7240      1.00000
     76     -47.7240      1.00000
     77     -47.7240      1.00000
     78     -47.7240      1.00000
     79     -47.7240      1.00000
     80     -47.7240      1.00000
     81     -47.7114      1.00000
     82     -47.7114      1.00000
     83     -47.7114      1.00000
     84     -47.7114      1.00000
     85     -47.7114      1.00000
     86     -47.7114      1.00000
     87     -47.7114      1.00000
     88     -47.7114      1.00000
     89     -47.7092      1.00000
     90     -47.7092      1.00000
     91     -47.7092      1.00000
     92     -47.7092      1.00000
     93     -47.7092      1.00000
     94     -47.7092      1.00000
     95     -47.7092      1.00000
     96     -47.7092      1.00000
     97      -9.1056      1.00000
     98      -8.4957      1.00000
     99      -8.4957      1.00000
    100      -8.4901      1.00000
    101      -8.4901      1.00000
    102      -8.4901      1.00000
    103      -8.4675      1.00000
    104      -8.1719      1.00000
    105      -8.1719      1.00000
    106      -8.1523      1.00000
    107      -8.1434      1.00000
    108      -8.1324      1.00000
    109      -8.1274      1.00000
    110      -8.1274      1.00000
    111      -8.1192      1.00000
    112      -8.1173      1.00000
    113      -8.1148      1.00000
    114      -8.1066      1.00000
    115      -8.1066      1.00000
    116      -8.0606      1.00000
    117      -8.0605      1.00000
    118      -8.0222      1.00000
    119      -8.0204      1.00000
    120      -7.7700      1.00000
    121      -7.7661      1.00000
    122      -7.7541      1.00000
    123      -7.7512      1.00000
    124      -7.7431      1.00000
    125      -7.7431      1.00000
    126      -7.7354      1.00000
    127      -7.7354      1.00000
    128      -7.7145      1.00000
    129      -2.0533      1.00000
    130      -2.0431      1.00000
    131      -2.0430      1.00000
    132      -2.0359      1.00000
    133      -2.0359      1.00000
    134      -2.0111      1.00000
    135      -1.9687      1.00000
    136      -1.9502      1.00000
    137      -1.9494      1.00000
    138      -1.8878      1.00000
    139      -1.8802      1.00000
    140      -1.8802      1.00000
    141      -1.8793      1.00000
    142      -1.8793      1.00000
    143      -1.8770      1.00000
    144      -1.8550      1.00000
    145      -1.8523      1.00000
    146      -1.8313      1.00000
    147      -1.8313      1.00000
    148      -1.8226      1.00000
    149      -1.8226      1.00000
    150      -1.8030      1.00000
    151      -1.7926      1.00000
    152      -1.7891      1.00000
    153      -1.7839      1.00000
    154      -1.7839      1.00000
    155      -1.7719      1.00000
    156      -1.7704      1.00000
    157      -1.7646      1.00000
    158      -1.7646      1.00000
    159      -1.7563      1.00000
    160      -1.7376      1.00000
    161      -1.7376      1.00000
    162      -1.7347      1.00000
    163      -1.7347      1.00000
    164      -1.7261      1.00000
    165      -1.7243      1.00000
    166      -1.7222      1.00000
    167      -1.6906      1.00000
    168      -1.6899      1.00000
    169      -0.9791      1.00000
    170      -0.9743      1.00000
    171      -0.8262      1.00000
    172      -0.8199      1.00000
    173      -0.7399      1.00000
    174      -0.4812      1.00000
    175      -0.2343      1.00000
    176      -0.2343      1.00000
    177      -0.2294      1.00000
    178      -0.2294      1.00000
    179      -0.1845      1.00000
    180      -0.1812      1.00000
    181      -0.1154      1.00000
    182      -0.0321      1.00000
    183      -0.0321      1.00000
    184      -0.0255      1.00000
    185      -0.0255      1.00000
    186       0.0525      1.00000
    187       0.0533      1.00000
    188       0.1022      1.00000
    189       0.1022      1.00000
    190       0.1139      1.00000
    191       0.1140      1.00000
    192       0.1158      1.00000
    193       0.2072      1.00000
    194       0.2770      1.00000
    195       0.2770      1.00000
    196       0.2773      1.00000
    197       0.2773      1.00000
    198       0.3070      1.00000
    199       0.3335      1.00000
    200       0.6852      1.00000
    201       0.7386      1.00000
    202       0.7391      1.00000
    203       0.7631      1.00000
    204       0.8035      1.00000
    205       0.8035      1.00000
    206       0.8087      1.00000
    207       0.8087      1.00000
    208       0.8760      1.00000
    209       0.8760      1.00000
    210       0.8836      1.00000
    211       0.8836      1.00000
    212       1.0103      1.00000
    213       1.0103      1.00000
    214       1.0219      1.00000
    215       1.0219      1.00000
    216       1.1358      1.00000
    217       1.1365      1.00000
    218       1.1385      1.00000
    219       1.1398      1.00000
    220       1.1754      1.00000
    221       1.1793      1.00000
    222       1.1920      1.00000
    223       1.1920      1.00000
    224       1.1986      1.00000
    225       1.1986      1.00000
    226       1.2064      1.00000
    227       1.2166      1.00000
    228       1.2632      1.00000
    229       1.2660      1.00000
    230       1.2760      1.00000
    231       1.2942      1.00000
    232       1.2942      1.00000
    233       1.2956      1.00000
    234       1.2956      1.00000
    235       1.3156      1.00000
    236       1.3556      1.00000
    237       1.3575      1.00000
    238       1.4949      1.00000
    239       1.5596      1.00000
    240       1.5630      1.00000
    241       1.6088      1.00000
    242       1.7967      1.00000
    243       1.7967      1.00000
    244       1.7995      1.00000
    245       1.7995      1.00000
    246       1.8602      1.00000
    247       1.8761      1.00000
    248       1.9249      1.00000
    249       1.9249      1.00000
    250       1.9259      1.00000
    251       1.9346      1.00000
    252       1.9369      1.00000
    253       1.9369      1.00000
    254       2.0090      1.00000
    255       2.0535      1.00000
    256       2.0660      1.00000
    257       2.1426      1.00000
    258       2.1988      1.00000
    259       2.1988      1.00000
    260       2.2177      1.00000
    261       2.2177      1.00000
    262       2.2288      1.00000
    263       2.2349      1.00000
    264       2.2878      1.00000
    265       2.6328      1.00000
    266       2.7349      1.00000
    267       2.7625      1.00000
    268       2.7625      1.00000
    269       2.7651      1.00000
    270       2.7651      1.00000
    271       2.7812      1.00000
    272       2.7818      1.00000
    273       2.7856      1.00000
    274       2.7856      1.00000
    275       2.7914      1.00000
    276       2.7914      1.00000
    277       2.8105      1.00000
    278       2.8288      1.00000
    279       2.8320      1.00000
    280       2.8957      1.00000
    281       2.9103      1.00000
    282       2.9225      1.00000
    283       2.9225      1.00000
    284       2.9334      1.00000
    285       2.9335      1.00000
    286       2.9641      1.00000
    287       3.0040      1.00000
    288       3.0862      1.00000
    289       3.0968      1.00000
    290       3.0975      1.00000
    291       3.1964      1.00000
    292       3.2109      1.00000
    293       3.2109      1.00000
    294       3.2147      1.00000
    295       3.2147      1.00000
    296       3.2288      1.00000
    297       3.2545      1.00000
    298       3.2622      1.00000
    299       3.3244      1.00000
    300       3.3911      1.00000
    301       3.3911      1.00000
    302       3.4020      1.00000
    303       3.4020      1.00000
    304       3.4829      1.00000
    305       3.4845      1.00000
    306       3.5241      1.00000
    307       3.5241      1.00000
    308       3.5513      1.00000
    309       3.5513      1.00000
    310       3.6261      1.00000
    311       3.6539      1.00000
    312       3.6681      1.00000
    313       3.6681      1.00000
    314       3.6936      1.00000
    315       3.6936      1.00000
    316       3.7606      1.00000
    317       3.7637      1.00000
    318       3.8974      1.00000
    319       4.0048      1.00000
    320       4.0569      1.00000
    321       4.0569      1.00000
    322       4.0679      1.00000
    323       4.0679      1.00000
    324       4.0941      1.00000
    325       4.1000      1.00000
    326       4.1228      1.00000
    327       4.1305      1.00000
    328       4.1305      1.00000
    329       4.1336      1.00000
    330       4.1414      1.00000
    331       4.1415      1.00000
    332       4.2348      1.00000
    333       4.2437      1.00000
    334       4.3044      1.00000
    335       4.3186      1.00000
    336       4.3311      1.00000
    337       4.6643      1.00000
    338       4.6698      1.00000
    339       4.6947      1.00000
    340       4.6947      1.00000
    341       4.7088      1.00000
    342       4.7088      1.00000
    343       4.8283      1.00000
    344       4.8285      1.00000
    345       5.7270      0.00000
    346       5.7301      0.00000
    347       5.7325      0.00000
    348       5.7325      0.00000
    349       5.7344      0.00000
    350       5.7344      0.00000
    351       5.7597      0.00000
    352       5.8760      0.00000
    353       5.8799      0.00000
    354       5.9210      0.00000
    355       5.9566      0.00000
    356       5.9566      0.00000
    357       5.9688      0.00000
    358       5.9688      0.00000
    359       6.0214      0.00000
    360       6.0405      0.00000
    361       6.0405      0.00000
    362       6.0562      0.00000
    363       6.0562      0.00000
    364       6.0628      0.00000
    365       6.2089      0.00000
    366       6.2113      0.00000
    367       6.2113      0.00000
    368       6.2150      0.00000
    369       6.2198      0.00000
    370       6.2198      0.00000
    371       6.2403      0.00000
    372       6.2434      0.00000
    373       6.3116      0.00000
    374       6.3141      0.00000
    375       6.3722      0.00000
    376       6.4353      0.00000
    377       6.4395      0.00000
    378       6.4665      0.00000
    379       6.4665      0.00000
    380       6.4675      0.00000
    381       6.4675      0.00000
    382       6.5453      0.00000
    383       6.7217      0.00000
    384       6.7323      0.00000
    385       7.6622      0.00000
[...]
 simple monoclinic supercell.


 Subroutine GETGRP returns: Found  2 space group operations
 (whereof  1 operations were pure point group operations)
 out of a pool of  4 trial point group operations.


The static configuration has the point symmetry C_1 .
 The point group associated with its full space group is C_2 .


Analysis of symmetry for dynamics (positions and initial velocities):
=====================================================================
 Subroutine PRICEL returns following result:
 
  LATTYP: Found a simple monoclinic cell.
 ALAT       =    11.9063728299
 B/A-ratio  =     0.4417296528
 C/A-ratio  =     1.8259538891
 COS(beta)  =    -0.9774464822
  
  Lattice vectors:
  
 A1 = (  -5.8028268555,   0.0000000000, -10.3965818637)
 A2 = (   0.0000000000,  -5.2593979363,   0.0000000000)
 A3 = (   6.3476886231,   0.0000000000,  20.7931637274)
 
   4 primitive cells build up your supercell.
 

 Routine SETGRP: Setting up the symmetry group for a 
 simple monoclinic supercell.


 Subroutine GETGRP returns: Found  2 space group operations
 (whereof  1 operations were pure point group operations)
 out of a pool of  4 trial point group operations.


The dynamic configuration has the point symmetry C_1 .
 The point group associated with its full space group is C_2 .


Analysis of structural, dynamic, and magnetic symmetry:
=====================================================================
 Subroutine PRICEL returns following result:
 
  LATTYP: Found a simple monoclinic cell.
 ALAT       =    11.9063728299
 B/A-ratio  =     0.4417296528
 C/A-ratio  =     1.8259538891
 COS(beta)  =    -0.9774464822
  
  Lattice vectors:
  
 A1 = (  -5.8028268555,   0.0000000000, -10.3965818637)
 A2 = (   0.0000000000,  -5.2593979363,   0.0000000000)
 A3 = (   6.3476886231,   0.0000000000,  20.7931637274)
 
   4 primitive cells build up your supercell.
 

 Routine SETGRP: Setting up the symmetry group for a 
 simple monoclinic supercell.


 Subroutine GETGRP returns: Found  2 space group operations
 (whereof  1 operations were pure point group operations)
 out of a pool of  4 trial point group operations.


The magnetic configuration has the point symmetry C_1 .
 The point group associated with its full space group is C_2 .


 Subroutine INISYM returns: Found  2 space group operations
 (whereof  1 operations are pure point group operations),
 and found     4 'primitive' translations



--------------------------------------------------------------------------------------------------------




 MACROSCOPIC STATIC DIELECTRIC TENSOR (including local field effects in DFT)
 ------------------------------------------------------
       37287.581090     0.000000 -2201.909818
           0.000000*************     0.000000
       -2202.151775     0.000000 43759.762795
 ------------------------------------------------------


 PIEZOELECTRIC TENSOR (including local field effects)  for field in x, y, z        (e  Angst)
          XX          YY          ZZ          XY          YZ          ZX
  --------------------------------------------------------------------------------
  x   -17.28783    13.86643    20.77942    -1.02717   -40.49472    12.18311
  y   -19.87953  -395.72687   296.01161     0.00000     0.00000     2.44000
  z     1.72337    -8.26871    11.44580   -35.58719   -16.99553   -14.06104

 PIEZOELECTRIC TENSOR (including local field effects)  for field in x, y, z        (C/m^2)
          XX          YY          ZZ          XY          YZ          ZX
  --------------------------------------------------------------------------------
  x     0.00000     0.00000     0.00000    -0.01431    -0.56416     0.00000
  y    -0.27696    -5.51318     4.12397     0.00000     0.00000     0.03399
  z     0.00000     0.00000     0.00000    -0.49579    -0.23678     0.00000
 
 BORN EFFECTIVE CHARGES (including local field effects) (in e, cummulative output)
 ---------------------------------------------------------------------------------
 ion    1
    1     0.92225    -0.27222    -0.50674
    2    -8.31803    -5.19097    -6.70136
    3    -1.82221    -2.29499    -4.30796
 ion    2
    1     0.92225    -0.27222    -0.50674
    2    -8.31803    -5.19097    -6.70136
    3    -1.82221    -2.29499    -4.30796
 ion    3
    1     0.92225    -0.27222    -0.50674
    2    -8.31803    -5.19097    -6.70136
    3    -1.82221    -2.29499    -4.30796
 ion    4
    1     0.92225    -0.27222    -0.50674
    2    -8.31803    -5.19097    -6.70136
    3    -1.82221    -2.29499    -4.30796
 ion    5
    1    -3.60998    -1.07963     1.22390
    2    -0.80131   -10.11924     0.19000
    3    -3.05109     2.10131    -3.78899
 ion    6
    1    -3.60998    -1.07963     1.22390
    2    -0.80131   -10.11924     0.19000
    3    -3.05109     2.10131    -3.78899
 ion    7
    1    -3.60998    -1.07963     1.22390
    2    -0.80131   -10.11924     0.19000
    3    -3.05109     2.10131    -3.78899
 ion    8
    1    -3.60998    -1.07963     1.22390
    2    -0.80131   -10.11924     0.19000
    3    -3.05109     2.10131    -3.78899
 ion    9
    1    -2.69216    -0.38905     1.48932
    2     0.00000     0.21083     0.00000
    3    -0.36795     0.03651     0.47983
 ion   10
    1    -2.69216    -0.38905     1.48932
    2     0.00000     0.21083     0.00000
    3    -0.36795     0.03651     0.47983
 ion   11
    1    -2.69216    -0.38905     1.48932
    2     0.00000     0.21083     0.00000
    3    -0.36795     0.03651     0.47983
 ion   12
    1    -2.69216    -0.38905     1.48932
    2     0.00000     0.21083    -0.00000
    3    -0.36795     0.03651     0.47983
 ion   13
    1    -1.26787     0.10988    -2.86545
    2     0.00000     1.69522    -0.00000
    3    -2.55966    -0.04409    -0.20378
 ion   14
    1    -1.26787     0.10988    -2.86545
    2     0.00000     1.69522     0.00000
    3    -2.55966    -0.04409    -0.20378
 ion   15
    1    -1.26787     0.10988    -2.86545
    2     0.00000     1.69522    -0.00000
    3    -2.55966    -0.04409    -0.20378
 ion   16
    1    -1.26787     0.10988    -2.86545
    2     0.00000     1.69522     0.00000
    3    -2.55966    -0.04409    -0.20378
 ion   17
    1    -0.96445     0.30481    -1.65065
    2     8.31803    -5.19097     6.70136
    3    -1.54130     1.19036    -4.18149
 ion   18
    1    -0.96445     0.30481    -1.65065
    2     8.31803    -5.19097     6.70136
    3    -1.54130     1.19036    -4.18149
 ion   19
    1    -0.96445     0.30481    -1.65065
    2     8.31803    -5.19097     6.70136
    3    -1.54130     1.19036    -4.18149
 ion   20
    1    -0.96445     0.30481    -1.65065
    2     8.31803    -5.19097     6.70136
    3    -1.54130     1.19036    -4.18149
 ion   21
    1    -3.53492    -0.01795     1.25492
    2     0.80131   -10.11924    -0.19000
    3    -0.92418     1.03129    -3.96664
 ion   22
    1    -3.53492    -0.01795     1.25492
    2     0.80131   -10.11924    -0.19000
    3    -0.92418     1.03129    -3.96664
 ion   23
    1    -3.53492    -0.01795     1.25492
    2     0.80131   -10.11924    -0.19000
    3    -0.92418     1.03129    -3.96664
 ion   24
    1    -3.53492    -0.01795     1.25492
    2     0.80131   -10.11924    -0.19000
    3    -0.92418     1.03129    -3.96664
 ion   25
    1    -0.26675     0.65601     0.13770
    2     0.00000     9.15612    -0.00000
    3    -0.21120     0.03191    -0.13918
 ion   26
    1    -0.26675     0.65601     0.13770
    2     0.00000     9.15612     0.00000
    3    -0.21120     0.03191    -0.13918
 ion   27
    1    -0.26675     0.65601     0.13770
    2     0.00000     9.15612     0.00000
    3    -0.21120     0.03191    -0.13918
 ion   28
    1    -0.26675     0.65601     0.13770
    2     0.00000     9.15612    -0.00000
    3    -0.21120     0.03191    -0.13918
 ion   29
    1    -1.52671     0.74030    -0.11648
    2     0.00000   -16.41251    -0.00000
    3    -2.95660    -1.10097     1.19326
 ion   30
    1    -1.52671     0.74030    -0.11648
    2     0.00000   -16.41251     0.00000
    3    -2.95660    -1.10097     1.19326
 ion   31
    1    -1.52671     0.74030    -0.11648
    2     0.00000   -16.41251     0.00000
    3    -2.95660    -1.10097     1.19326
 ion   32
    1    -1.52671     0.74030    -0.11648
    2     0.00000   -16.41251     0.00000
    3    -2.95660    -1.10097     1.19326
 ion   33
    1     1.25979    -0.11816    -0.02291
    2    -2.18414     0.98657    -4.71334
    3    -0.05752     0.40560     1.92171
 ion   34
    1     1.25979    -0.11816    -0.02291
    2    -2.18414     0.98657    -4.71334
    3    -0.05752     0.40560     1.92171
 ion   35
    1     1.25979    -0.11816    -0.02291
    2    -2.18414     0.98657    -4.71334
    3    -0.05752     0.40560     1.92171
 ion   36
    1     1.25979    -0.11816    -0.02291
    2    -2.18414     0.98657    -4.71334
    3    -0.05752     0.40560     1.92171
 ion   37
    1     0.59228     0.04578    -0.14137
    2     2.18414     0.98657     4.71334
    3     2.63691     0.20680     1.08484
 ion   38
    1     0.59228     0.04578    -0.14137
    2     2.18414     0.98657     4.71334
    3     2.63691     0.20680     1.08484
 ion   39
    1     0.59228     0.04578    -0.14137
    2     2.18414     0.98657     4.71334
    3     2.63691     0.20680     1.08484
 ion   40
    1     0.59228     0.04578    -0.14137
    2     2.18414     0.98657     4.71334
    3     2.63691     0.20680     1.08484
 ion   41
    1     0.81466    -0.13279     0.11211
    2    -3.47109    -5.22194     0.54917
    3     3.42718    -0.07118     0.49908
 ion   42
    1     0.81466    -0.13279     0.11211
    2    -3.47109    -5.22194     0.54917
    3     3.42718    -0.07118     0.49908
 ion   43
    1     0.81466    -0.13279     0.11211
    2    -3.47109    -5.22194     0.54917
    3     3.42718    -0.07118     0.49908
 ion   44
    1     0.81466    -0.13279     0.11211
    2    -3.47109    -5.22194     0.54917
    3     3.42718    -0.07118     0.49908
 ion   45
    1     0.97166     0.05565     0.00072
    2     3.47109    -5.22194    -0.54917
    3     0.17523    -0.31558     0.78989
 ion   46
    1     0.97166     0.05565     0.00072
    2     3.47109    -5.22194    -0.54917
    3     0.17523    -0.31558     0.78989
 ion   47
    1     0.97166     0.05565     0.00072
    2     3.47109    -5.22194    -0.54917
    3     0.17523    -0.31558     0.78989
 ion   48
    1     0.97166     0.05565     0.00072
    2     3.47109    -5.22194    -0.54917
    3     0.17523    -0.31558     0.78989
 ion   49
    1     2.00388    -0.05149    -0.37504
    2    -8.21801    12.74167   -11.41613
    3     1.24138    -0.09207     2.64512
 ion   50
    1     2.00388    -0.05149    -0.37504
    2    -8.21801    12.74167   -11.41613
    3     1.24138    -0.09207     2.64512
 ion   51
    1     2.00388    -0.05149    -0.37504
    2    -8.21801    12.74167   -11.41613
    3     1.24138    -0.09207     2.64512
 ion   52
    1     2.00388    -0.05149    -0.37504
    2    -8.21801    12.74167   -11.41613
    3     1.24138    -0.09207     2.64512
 ion   53
    1     2.89747     0.07349     0.21476
    2     8.21801    12.74167    11.41613
    3     3.17497    -0.61635     2.89178
 ion   54
    1     2.89747     0.07349     0.21476
    2     8.21801    12.74167    11.41613
    3     3.17497    -0.61635     2.89178
 ion   55
    1     2.89747     0.07349     0.21476
    2     8.21801    12.74167    11.41613
    3     3.17497    -0.61635     2.89178
 ion   56
    1     2.89747     0.07349     0.21476
    2     8.21801    12.74167    11.41613
    3     3.17497    -0.61635     2.89178
 ion   57
    1     2.38147    -0.43247     0.52408
    2     0.73590     9.47909    -5.94962
    3     2.75204    -0.18003     2.30145
 ion   58
    1     2.38147    -0.43247     0.52408
    2     0.73590     9.47909    -5.94962
    3     2.75204    -0.18003     2.30145
 ion   59
    1     2.38147    -0.43247     0.52408
    2     0.73590     9.47909    -5.94962
    3     2.75204    -0.18003     2.30145
 ion   60
    1     2.38147    -0.43247     0.52408
    2     0.73590     9.47909    -5.94962
    3     2.75204    -0.18003     2.30145
 ion   61
    1     2.01938     0.50786     0.72113
    2    -0.73590     9.47909     5.94962
    3     0.08400    -0.28853     2.78108
 ion   62
    1     2.01938     0.50786     0.72113
    2    -0.73590     9.47909     5.94962
    3     0.08400    -0.28853     2.78108
 ion   63
    1     2.01938     0.50786     0.72113
    2    -0.73590     9.47909     5.94962
    3     0.08400    -0.28853     2.78108
 ion   64
    1     2.01938     0.50786     0.72113
    2    -0.73590     9.47909     5.94962
    3     0.08400    -0.28853     2.78108


--------------------------------------------------------------------------------------------------------


 writing wavefunctions
     LOOP+:  cpu time70775.0924: real time72159.9773
    4ORBIT:  cpu time    0.0001: real time    0.0009
 


 total charge     
 
# of ion       s       p       d       tot
------------------------------------------
    1        1.314   2.409   0.000   3.723
    2        1.314   2.409   0.000   3.723
    3        1.314   2.409   0.000   3.723
    4        1.314   2.409   0.000   3.723
    5        1.314   2.409   0.000   3.723
    6        1.314   2.409   0.000   3.723
    7        1.314   2.409   0.000   3.723
    8        1.314   2.409   0.000   3.723
    9        1.315   2.407   0.000   3.721
   10        1.315   2.407   0.000   3.721
   11        1.315   2.407   0.000   3.721
   12        1.315   2.407   0.000   3.721
   13        1.313   2.412   0.000   3.725
   14        1.313   2.412   0.000   3.725
   15        1.313   2.412   0.000   3.725
   16        1.313   2.412   0.000   3.725
   17        1.314   2.409   0.000   3.723
   18        1.314   2.409   0.000   3.723
   19        1.314   2.409   0.000   3.723
   20        1.314   2.409   0.000   3.723
   21        1.314   2.409   0.000   3.723
   22        1.314   2.409   0.000   3.723
   23        1.314   2.409   0.000   3.723
   24        1.314   2.409   0.000   3.723
   25        1.315   2.407   0.000   3.721
   26        1.315   2.407   0.000   3.721
   27        1.315   2.407   0.000   3.721
   28        1.315   2.407   0.000   3.721
   29        1.313   2.412   0.000   3.725
   30        1.313   2.412   0.000   3.725
   31        1.313   2.412   0.000   3.725
   32        1.313   2.412   0.000   3.725
   33        0.259   6.202   8.917  15.378
   34        0.259   6.202   8.917  15.378
   35        0.259   6.202   8.917  15.378
   36        0.259   6.202   8.917  15.378
   37        0.259   6.202   8.917  15.378
   38        0.259   6.202   8.917  15.378
   39        0.259   6.202   8.917  15.378
   40        0.259   6.202   8.917  15.378
   41        0.259   6.202   8.917  15.378
   42        0.259   6.202   8.917  15.378
   43        0.259   6.202   8.917  15.378
   44        0.259   6.202   8.917  15.378
   45        0.259   6.202   8.917  15.378
   46        0.259   6.202   8.917  15.378
   47        0.259   6.202   8.917  15.378
   48        0.259   6.202   8.917  15.378
   49        0.350   6.350   5.820  12.520
   50        0.350   6.350   5.821  12.520
   51        0.350   6.350   5.821  12.520
   52        0.350   6.350   5.821  12.520
   53        0.350   6.350   5.820  12.520
   54        0.350   6.350   5.820  12.520
   55        0.350   6.350   5.820  12.520
   56        0.350   6.350   5.820  12.520
   57        0.350   6.350   5.821  12.520
   58        0.350   6.350   5.821  12.520
   59        0.350   6.350   5.821  12.520
   60        0.350   6.350   5.821  12.520
   61        0.350   6.350   5.820  12.520
   62        0.350   6.350   5.820  12.520
   63        0.350   6.350   5.820  12.520
   64        0.350   6.350   5.820  12.520
--------------------------------------------------
tot         51.783 277.921 235.794 565.498
 


 magnetization (x)
 
# of ion       s       p       d       tot
------------------------------------------
    1       -0.000  -0.013   0.000  -0.013
    2       -0.000  -0.013   0.000  -0.013
    3       -0.000  -0.013   0.000  -0.013
    4       -0.000  -0.013   0.000  -0.013
    5        0.000   0.012   0.000   0.012
    6        0.000   0.012   0.000   0.012
    7        0.000   0.012   0.000   0.012
    8        0.000   0.012   0.000   0.012
    9       -0.000   0.000   0.000   0.000
   10       -0.000   0.000   0.000   0.000
   11       -0.000   0.000   0.000   0.000
   12       -0.000   0.000   0.000   0.000
   13       -0.000   0.000   0.000   0.000
   14       -0.000   0.000   0.000   0.000
   15       -0.000   0.000   0.000   0.000
   16       -0.000   0.000   0.000   0.000
   17        0.000   0.012   0.000   0.012
   18        0.000   0.012   0.000   0.012
   19        0.000   0.012   0.000   0.012
   20        0.000   0.012   0.000   0.012
   21       -0.000  -0.013   0.000  -0.013
   22       -0.000  -0.013   0.000  -0.013
   23       -0.000  -0.013   0.000  -0.013
   24       -0.000  -0.013   0.000  -0.013
   25       -0.000   0.000   0.000   0.000
   26       -0.000   0.000   0.000   0.000
   27       -0.000   0.000   0.000   0.000
   28       -0.000   0.000   0.000   0.000
   29       -0.000   0.000   0.000   0.000
   30       -0.000   0.000   0.000   0.000
   31       -0.000   0.000   0.000   0.000
   32       -0.000   0.000   0.000   0.000
   33        0.000   0.001  -0.001  -0.000
   34        0.000   0.001  -0.001  -0.000
   35        0.000   0.001  -0.001  -0.000
   36        0.000   0.001  -0.001  -0.000
   37       -0.000  -0.001   0.002   0.001
   38       -0.000  -0.001   0.002   0.001
   39       -0.000  -0.001   0.002   0.001
   40       -0.000  -0.001   0.002   0.001
   41        0.000   0.001  -0.001  -0.000
   42        0.000   0.001  -0.001  -0.000
   43        0.000   0.001  -0.001  -0.000
   44        0.000   0.001  -0.001  -0.000
   45       -0.000  -0.001   0.002   0.001
   46       -0.000  -0.001   0.002   0.001
   47       -0.000  -0.001   0.002   0.001
   48       -0.000  -0.001   0.002   0.001
   49        0.020   0.054   3.670   3.743
   50        0.020   0.054   3.670   3.743
   51        0.020   0.054   3.670   3.743
   52        0.020   0.054   3.670   3.743
   53       -0.020  -0.054  -3.670  -3.743
   54       -0.020  -0.054  -3.670  -3.743
   55       -0.020  -0.054  -3.670  -3.743
   56       -0.020  -0.054  -3.670  -3.743
   57        0.020   0.054   3.670   3.743
   58        0.020   0.054   3.670   3.743
   59        0.020   0.054   3.670   3.743
   60        0.020   0.054   3.670   3.743
   61       -0.020  -0.054  -3.670  -3.743
   62       -0.020  -0.054  -3.670  -3.743
   63       -0.020  -0.054  -3.670  -3.743
   64       -0.020  -0.054  -3.670  -3.743
--------------------------------------------------
tot         -0.000   0.001  -0.000   0.000
 
 BZINTS: Fermi energy:  4.937207;688.000000 electrons
         Band energy:***********;  BLOECHL correction:  0.000000

 total amount of memory used by VASP MPI-rank0   881832. kBytes
=======================================================================

   base      :      30000. kBytes
   nonl-proj :     680181. kBytes
   fftplans  :       4588. kBytes
   grid      :      69719. kBytes
   one-center:       1990. kBytes
   wavefun   :      95354. kBytes
 
  
  
 General timing and accounting informations for this job:
 ========================================================
  
                  Total CPU time used (sec):    70923.859
                            User time (sec):    70645.728
                          System time (sec):      278.130
                         Elapsed time (sec):    72315.503
  
                   Maximum memory used (kb):     1954612.
                   Average memory used (kb):           0.
  
                          Minor page faults:    109344294
                          Major page faults:        39722
                 Voluntary context switches:        55994
