       N       E                     dE             d eps       ncg     rms          rms(c)
DAV:   1    -0.303280219419E+03   -0.30328E+03   -0.13006E+03 19456   0.199E+02    0.306E+01
DAV:   2    -0.325177795464E+03   -0.21898E+02   -0.21926E+02 12800   0.225E+01    0.124E+01
DAV:   3    -0.325455051767E+03   -0.27726E+00   -0.33901E+00 19968   0.342E+00    0.911E+00
DAV:   4    -0.325453863917E+03    0.11878E-02   -0.13290E-01 13824   0.103E+00    0.787E+00
DAV:   5    -0.325453758994E+03    0.10492E-03   -0.10714E-02 17408   0.308E-01    0.685E+00
DAV:   6    -0.325453532175E+03    0.22682E-03   -0.54891E-04 15872   0.622E-02    0.629E+00
DAV:   7    -0.325452822378E+03    0.70980E-03   -0.53417E-04 17920   0.696E-02    0.479E+00
DAV:   8    -0.325452443794E+03    0.37858E-03   -0.38540E-04 14592   0.562E-02    0.300E+00
DAV:   9    -0.325452337968E+03    0.10583E-03   -0.61671E-05 17152   0.194E-02    0.242E+00
DAV:  10    -0.325452179323E+03    0.15865E-03   -0.22672E-04 15872   0.373E-02    0.107E+00
DAV:  11    -0.325452156925E+03    0.22398E-04   -0.27683E-05 15360   0.130E-02    0.618E-01
DAV:  12    -0.325452147345E+03    0.95796E-05   -0.66424E-06 16128   0.520E-03    0.337E-01
DAV:  13    -0.325452140226E+03    0.71188E-05   -0.63325E-06 15872   0.626E-03    0.869E-02
DAV:  14    -0.325452138909E+03    0.13173E-05   -0.13926E-06 16896   0.256E-03    0.134E-02
DAV:  15    -0.325452138681E+03    0.22788E-06   -0.19967E-07 15616   0.553E-04    0.259E-03
DAV:  16    -0.325452138695E+03   -0.13548E-07   -0.22359E-08 14336   0.276E-04    0.455E-04
DAV:  17    -0.325452138684E+03    0.11220E-07   -0.16195E-09  9984   0.723E-05    0.999E-04
DAV:  18    -0.325452138655E+03    0.28580E-07   -0.88996E-09 11776   0.145E-04    0.473E-04
DAV:  19    -0.325452138648E+03    0.68540E-08   -0.60162E-10  9728   0.533E-05
   1 F= -.32545214E+03 E0= -.32545214E+03  d E =0.000000E+00  mag=    -0.0000
