 vasp.5.4.4.18Apr17-6-g9f103f2a35 (build Oct 30 2023 17:30:16) complex          
  
 executed on             LinuxIFC date 2024.06.29  18:26:01
 running on  256 total cores
 distrk:  each k-point on  256 cores,    1 groups
 distr:  one band on NCORES_PER_BAND=   1 cores,  256 groups


--------------------------------------------------------------------------------------------------------


 INCAR:
 POTCAR:    PAW_PBE S 06Sep2000                   
 POTCAR:     PAW_PBE Cu_pv 06Sep2000              
 POTCAR:     PAW_PBE Fe_pv 02Aug2007              

 ----------------------------------------------------------------------------- 
|                                                                             |
|           W    W    AA    RRRRR   N    N  II  N    N   GGGG   !!!           |
|           W    W   A  A   R    R  NN   N  II  NN   N  G    G  !!!           |
|           W    W  A    A  R    R  N N  N  II  N N  N  G       !!!           |
|           W WW W  AAAAAA  RRRRR   N  N N  II  N  N N  G  GGG   !            |
|           WW  WW  A    A  R   R   N   NN  II  N   NN  G    G                |
|           W    W  A    A  R    R  N    N  II  N    N   GGGG   !!!           |
|                                                                             |
|      For optimal performance we recommend to set                            |
|        NCORE= 4 - approx SQRT( number of cores)                             |
|      NCORE specifies how many cores store one orbital (NPAR=cpu/NCORE).     |
|      This setting can  greatly improve the performance of VASP for DFT.     |
|      The default,   NCORE=1            might be grossly inefficient         |
|      on modern multi-core architectures or massively parallel machines.     |
|      Do your own testing !!!!                                               |
|      Unfortunately you need to use the default for GW and RPA calculations. |
|      (for HF NCORE is supported but not extensively tested yet)             |
|                                                                             |
 ----------------------------------------------------------------------------- 

 POTCAR:    PAW_PBE S 06Sep2000                   
   SHA256 =  0fc7481fb0695f01bdc6462160264c5c84044ae9ec85a907d398b887a2bc3132 S/
   COPYR  = (c) Copyright 06Sep2000 Georg Kresse                                
   COPYR  = This file is part of the software VASP. Any use, copying, and all ot
   COPYR  = If you do not have a valid VASP license, you may not use, copy or di
   VRHFIN =S : s2p4                                                             
   LEXCH  = PE                                                                  
   EATOM  =   276.8230 eV,   20.3459 Ry                                         
                                                                                
   TITEL  = PAW_PBE S 06Sep2000                                                 
   LULTRA =        F    use ultrasoft PP ?                                      
   IUNSCR =        1    unscreen: 0-lin 1-nonlin 2-no                           
   RPACOR =    1.500    partial core radius                                     
   POMASS =   32.066; ZVAL   =    6.000    mass and valenz                      
   RCORE  =    1.900    outmost cutoff radius                                   
   RWIGS  =    2.200; RWIGS  =    1.164    wigner-seitz radius (au A)           
   ENMAX  =  258.689; ENMIN  =  194.016 eV                                      
   ICORE  =        2    local potential                                         
   LCOR   =        T    correct aug charges                                     
   LPAW   =        T    paw PP                                                  
   EAUG   =  335.092                                                            
   DEXC   =    0.000                                                            
   RMAX   =    1.942    core radius for proj-oper                               
   RAUG   =    1.300    factor for augmentation sphere                          
   RDEP   =    1.954    radius for radial grids                                 
   RDEPT  =    1.744    core radius for aug-charge                              
                                                                                
   Atomic configuration                                                         
    6 entries                                                                   
     n  l   j            E        occ.                                          
     1  0  0.50     -2405.8406   2.0000                                         
     2  0  0.50      -211.7007   2.0000                                         
     2  1  1.50      -156.4958   6.0000                                         
     3  0  0.50       -17.2562   2.0000                                         
     3  1  0.50        -7.0085   4.0000                                         
     3  2  1.50        -6.8029   0.0000                                         
   Description                                                                  
     l       E           TYP  RCUT    TYP  RCUT                                 
     0    -17.2561641     23  1.900                                             
     0    -15.8743224     23  1.900                                             
     1     -7.0085400     23  1.900                                             
     1     -2.7779785     23  1.900                                             
     2     -6.8029130     23  1.900                                             
  local pseudopotential read in
  partial core-charges read in
  partial kinetic energy density read in
  atomic valenz-charges read in
  non local Contribution for L=           0  read in
    real space projection operators read in
  non local Contribution for L=           0  read in
    real space projection operators read in
  non local Contribution for L=           1  read in
    real space projection operators read in
  non local Contribution for L=           1  read in
    real space projection operators read in
    PAW grid and wavefunctions read in
 
   number of l-projection  operators is LMAX  =           4
   number of lm-projection operators is LMMAX =           8
 
 POTCAR:     PAW_PBE Cu_pv 06Sep2000              
   SHA256 =  cb7b504e2ea725fe1f25c85a9ac77d4012ce94cd394135b722c4e25ec297f1cb Cu
   COPYR  = (c) Copyright 06Sep2000 Georg Kresse                                
   COPYR  = This file is part of the software VASP. Any use, copying, and all ot
   COPYR  = If you do not have a valid VASP license, you may not use, copy or di
   VRHFIN =Cu: d10 p1                                                           
   LEXCH  = PE                                                                  
   EATOM  =  4120.1201 eV,  302.8203 Ry                                         
                                                                                
   TITEL  = PAW_PBE Cu_pv 06Sep2000                                             
   LULTRA =        F    use ultrasoft PP ?                                      
   IUNSCR =        1    unscreen: 0-lin 1-nonlin 2-no                           
   RPACOR =    1.500    partial core radius                                     
   POMASS =   63.546; ZVAL   =   17.000    mass and valenz                      
   RCORE  =    2.000    outmost cutoff radius                                   
   RWIGS  =    2.000; RWIGS  =    1.058    wigner-seitz radius (au A)           
   ENMAX  =  368.648; ENMIN  =  276.486 eV                                      
   RCLOC  =    1.304    cutoff for local pot                                    
   LCOR   =        T    correct aug charges                                     
   LPAW   =        T    paw PP                                                  
   EAUG   =  758.233                                                            
   DEXC   =    0.000                                                            
   RMAX   =    2.046    core radius for proj-oper                               
   RAUG   =    1.300    factor for augmentation sphere                          
   RDEP   =    2.025    radius for radial grids                                 
   RDEPT  =    1.558    core radius for aug-charge                              
                                                                                
   Atomic configuration                                                         
    8 entries                                                                   
     n  l   j            E        occ.                                          
     1  0  0.50     -8850.2467   2.0000                                         
     2  0  0.50     -1062.3498   2.0000                                         
     2  1  1.50      -916.8226   6.0000                                         
     3  0  0.50      -114.6929   2.0000                                         
     3  1  1.50       -72.1325   6.0000                                         
     3  2  2.50        -5.0394  10.0000                                         
     4  0  0.50        -4.6097   1.0000                                         
     4  3  2.50        -1.3606   0.0000                                         
   Description                                                                  
     l       E           TYP  RCUT    TYP  RCUT                                 
     1    -72.1324777     23  1.700                                             
     1     -1.3605826     23  1.700                                             
     2     -5.0393776     23  2.000                                             
     2     -6.3999602     23  2.000                                             
     0     -4.6097062     23  1.800                                             
     0     14.1620818     23  1.800                                             
  local pseudopotential read in
  partial core-charges read in
  partial kinetic energy density read in
  atomic valenz-charges read in
  non local Contribution for L=           1  read in
    real space projection operators read in
  non local Contribution for L=           1  read in
    real space projection operators read in
  non local Contribution for L=           2  read in
    real space projection operators read in
  non local Contribution for L=           2  read in
    real space projection operators read in
  non local Contribution for L=           0  read in
    real space projection operators read in
  non local Contribution for L=           0  read in
    real space projection operators read in
    PAW grid and wavefunctions read in
 
   number of l-projection  operators is LMAX  =           6
   number of lm-projection operators is LMMAX =          18
 
 POTCAR:     PAW_PBE Fe_pv 02Aug2007              
   SHA256 =  5d22e414b1f82158bf2c7ecb8b97b28fd0923e48cadc1c3bf74d524558f5dd32 Fe
   COPYR  = (c) Copyright 02Aug2007 Georg Kresse                                
   COPYR  = This file is part of the software VASP. Any use, copying, and all ot
   COPYR  = If you do not have a valid VASP license, you may not use, copy or di
   VRHFIN =Fe:  3pd7s1                                                          
   LEXCH  = PE                                                                  
   EATOM  =  2457.4239 eV,  180.6156 Ry                                         
                                                                                
   TITEL  = PAW_PBE Fe_pv 02Aug2007                                             
   LULTRA =        F    use ultrasoft PP ?                                      
   IUNSCR =        1    unscreen: 0-lin 1-nonlin 2-no                           
   RPACOR =    1.750    partial core radius                                     
   POMASS =   55.847; ZVAL   =   14.000    mass and valenz                      
   RCORE  =    2.200    outmost cutoff radius                                   
   RWIGS  =    2.200; RWIGS  =    1.164    wigner-seitz radius (au A)           
   ENMAX  =  293.238; ENMIN  =  219.928 eV                                      
   ICORE  =        3    local potential                                         
   LCOR   =        T    correct aug charges                                     
   LPAW   =        T    paw PP                                                  
   EAUG   =  578.342                                                            
   DEXC   =    0.000                                                            
   RMAX   =    2.249    core radius for proj-oper                               
   RAUG   =    1.300    factor for augmentation sphere                          
   RDEP   =    2.296    radius for radial grids                                 
   RDEPT  =    1.766    core radius for aug-charge                              
                                                                                
   Atomic configuration                                                         
    8 entries                                                                   
     n  l   j            E        occ.                                          
     1  0  0.50     -6993.8440   2.0000                                         
     2  0  0.50      -814.6047   2.0000                                         
     2  1  1.50      -693.3689   6.0000                                         
     3  0  0.50       -89.4732   2.0000                                         
     3  1  1.50       -55.6373   6.0000                                         
     3  2  2.50        -3.8151   7.0000                                         
     4  0  0.50        -4.2551   1.0000                                         
     4  3  2.50        -1.3606   0.0000                                         
   Description                                                                  
     l       E           TYP  RCUT    TYP  RCUT                                 
     1    -55.6372668     23  2.000                                             
     1     -5.4423304     23  2.000                                             
     2     -3.8151096     23  2.200                                             
     2     -5.1756922     23  2.200                                             
     0     -4.2550951     23  2.200                                             
     0     27.2116520     23  2.200                                             
     3     -1.3605826     23  2.200                                             
  local pseudopotential read in
  partial core-charges read in
  partial kinetic energy density read in
  atomic valenz-charges read in
  non local Contribution for L=           1  read in
    real space projection operators read in
  non local Contribution for L=           1  read in
    real space projection operators read in
  non local Contribution for L=           2  read in
    real space projection operators read in
  non local Contribution for L=           2  read in
    real space projection operators read in
  non local Contribution for L=           0  read in
    real space projection operators read in
  non local Contribution for L=           0  read in
    real space projection operators read in
    PAW grid and wavefunctions read in
 
   number of l-projection  operators is LMAX  =           6
   number of lm-projection operators is LMMAX =          18
 

 ----------------------------------------------------------------------------- 
|                                                                             |
|  ADVICE TO THIS USER RUNNING 'VASP/VAMP'   (HEAR YOUR MASTER'S VOICE ...):  |
|                                                                             |
|      You have a (more or less) 'large supercell' and for larger cells       |
|      it might be more efficient to use real space projection opertators     |
|      So try LREAL= Auto  in the INCAR   file.                               |
|      Mind:          For very  accurate calculation you might also keep the  |
|      reciprocal projection scheme          (i.e. LREAL=.FALSE.)             |
|                                                                             |
 ----------------------------------------------------------------------------- 


 ----------------------------------------------------------------------------- 
|                                                                             |
|  ADVICE TO THIS USER RUNNING 'VASP/VAMP'   (HEAR YOUR MASTER'S VOICE ...):  |
|                                                                             |
|      You enforced a specific xc-type in the INCAR file,                     |
|      a different type was found on the POTCAR file                          |
|          I HOPE YOU KNOW, WHAT YOU ARE  DOING                               |
|                                                                             |
 ----------------------------------------------------------------------------- 

  PAW_PBE S 06Sep2000                   :
 energy of atom  1       EATOM= -276.8230
 kinetic energy error for atom=    0.0007 (will be added to EATOM!!)
   PAW_PBE Cu_pv 06Sep2000              :
 energy of atom  2       EATOM=-4120.1201
 kinetic energy error for atom=    0.0094 (will be added to EATOM!!)
   PAW_PBE Fe_pv 02Aug2007              :
 energy of atom  3       EATOM=-2457.4239
 kinetic energy error for atom=    0.0025 (will be added to EATOM!!)
 
 
 POSCAR: Fe16 Cu16 S32                           
  positions in direct lattice
  No initial velocities read in
 exchange correlation table for  LEXCH =       14
   RHO(1)=    0.500       N(1)  =     2000
   RHO(2)=  100.500       N(2)  =     4000
 


--------------------------------------------------------------------------------------------------------


 ion  position               nearest neighbor table
   1  0.126  0.126  0.117-  37 2.25  61 2.27  41 2.29  49 2.30
   2  0.626  0.126  0.117-  38 2.25  62 2.27  42 2.29  50 2.30
   3  0.126  0.626  0.117-  39 2.25  63 2.27  43 2.29  51 2.30
   4  0.626  0.626  0.117-  40 2.25  64 2.27  44 2.29  52 2.30
   5  0.374  0.374  0.117-  39 2.25  62 2.27  41 2.29  52 2.30
   6  0.874  0.374  0.117-  40 2.25  61 2.27  42 2.29  51 2.30
   7  0.374  0.874  0.117-  37 2.25  64 2.27  43 2.29  50 2.30
   8  0.874  0.874  0.117-  38 2.25  63 2.27  44 2.29  49 2.30
   9  0.124  0.374  0.867-  41 2.25  51 2.27  45 2.29  55 2.30
  10  0.624  0.374  0.867-  42 2.25  52 2.27  46 2.29  56 2.30
  11  0.124  0.874  0.867-  43 2.25  49 2.27  47 2.29  53 2.30
  12  0.624  0.874  0.867-  44 2.25  50 2.27  48 2.29  54 2.30
  13  0.376  0.126  0.867-  41 2.25  50 2.27  46 2.29  53 2.30
  14  0.876  0.126  0.867-  42 2.25  49 2.27  45 2.29  54 2.30
  15  0.376  0.626  0.867-  43 2.25  52 2.27  48 2.29  55 2.30
  16  0.876  0.626  0.867-  44 2.25  51 2.27  47 2.29  56 2.30
  17  0.124  0.124  0.617-  45 2.25  53 2.27  33 2.29  57 2.30
  18  0.624  0.124  0.617-  46 2.25  54 2.27  34 2.29  58 2.30
  19  0.124  0.624  0.617-  47 2.25  55 2.27  35 2.29  59 2.30
  20  0.624  0.624  0.617-  48 2.25  56 2.27  36 2.29  60 2.30
  21  0.376  0.376  0.617-  46 2.25  55 2.27  36 2.29  57 2.30
  22  0.876  0.376  0.617-  45 2.25  56 2.27  35 2.29  58 2.30
  23  0.376  0.876  0.617-  48 2.25  53 2.27  34 2.29  59 2.30
  24  0.876  0.876  0.617-  47 2.25  54 2.27  33 2.29  60 2.30
  25  0.374  0.124  0.367-  34 2.25  57 2.27  37 2.29  62 2.30
  26  0.874  0.124  0.367-  33 2.25  58 2.27  38 2.29  61 2.30
  27  0.374  0.624  0.367-  36 2.25  59 2.27  39 2.29  64 2.30
  28  0.874  0.624  0.367-  35 2.25  60 2.27  40 2.29  63 2.30
  29  0.126  0.376  0.367-  35 2.25  57 2.27  39 2.29  61 2.30
  30  0.626  0.376  0.367-  36 2.25  58 2.27  40 2.29  62 2.30
  31  0.126  0.876  0.367-  33 2.25  59 2.27  37 2.29  63 2.30
  32  0.626  0.876  0.367-  34 2.25  60 2.27  38 2.29  64 2.30
  33  0.000  0.000  0.507-  26 2.25  31 2.25  17 2.29  24 2.29
  34  0.500  0.000  0.507-  25 2.25  32 2.25  18 2.29  23 2.29
  35  0.000  0.500  0.507-  28 2.25  29 2.25  19 2.29  22 2.29
  36  0.500  0.500  0.507-  27 2.25  30 2.25  20 2.29  21 2.29
  37  0.250  0.000  0.257-   1 2.25   7 2.25  25 2.29  31 2.29
  38  0.750  0.000  0.257-   2 2.25   8 2.25  26 2.29  32 2.29
  39  0.250  0.500  0.257-   3 2.25   5 2.25  27 2.29  29 2.29
  40  0.750  0.500  0.257-   4 2.25   6 2.25  28 2.29  30 2.29
  41  0.250  0.250  0.007-   9 2.25  13 2.25   1 2.29   5 2.29
  42  0.750  0.250  0.007-  10 2.25  14 2.25   2 2.29   6 2.29
  43  0.250  0.750  0.007-  11 2.25  15 2.25   3 2.29   7 2.29
  44  0.750  0.750  0.007-  12 2.25  16 2.25   4 2.29   8 2.29
  45  0.000  0.250  0.757-  17 2.25  22 2.25   9 2.29  14 2.29
  46  0.500  0.250  0.757-  18 2.25  21 2.25  10 2.29  13 2.29
  47  0.000  0.750  0.757-  19 2.25  24 2.25  11 2.29  16 2.29
  48  0.500  0.750  0.757-  20 2.25  23 2.25  12 2.29  15 2.29
  49  0.000  0.000  0.009-  11 2.27  14 2.27   1 2.30   8 2.30
  50  0.500  0.000  0.009-  12 2.27  13 2.27   2 2.30   7 2.30
  51  0.000  0.500  0.009-   9 2.27  16 2.27   3 2.30   6 2.30
  52  0.500  0.500  0.009-  10 2.27  15 2.27   4 2.30   5 2.30
  53  0.250  0.000  0.759-  17 2.27  23 2.27  11 2.30  13 2.30
  54  0.750  0.000  0.759-  18 2.27  24 2.27  12 2.30  14 2.30
  55  0.250  0.500  0.759-  19 2.27  21 2.27   9 2.30  15 2.30
  56  0.750  0.500  0.759-  20 2.27  22 2.27  10 2.30  16 2.30
  57  0.250  0.250  0.509-  25 2.27  29 2.27  17 2.30  21 2.30
  58  0.750  0.250  0.509-  26 2.27  30 2.27  18 2.30  22 2.30
  59  0.250  0.750  0.509-  27 2.27  31 2.27  19 2.30  23 2.30
  60  0.750  0.750  0.509-  28 2.27  32 2.27  20 2.30  24 2.30
  61  0.000  0.250  0.259-   1 2.27   6 2.27  26 2.30  29 2.30
  62  0.500  0.250  0.259-   2 2.27   5 2.27  25 2.30  30 2.30
  63  0.000  0.750  0.259-   3 2.27   8 2.27  28 2.30  31 2.30
  64  0.500  0.750  0.259-   4 2.27   7 2.27  27 2.30  32 2.30
 
  LATTYP: Found a base centered orthorhombic cell.
 ALAT       =    13.6543012412
 B/A-ratio  =     1.1708685269
 C/A-ratio  =     0.7651010341
  
  Lattice vectors:
  
 A1 = (  10.4799210000,   0.8248720000,   0.0000000000)
 A2 = (  -0.8248720000, -10.4799210000,   0.0000000000)
 A3 = (   0.0000000000,   0.0000000000, -10.4469200000)


Analysis of symmetry for initial positions (statically):
=====================================================================
 Subroutine PRICEL returns following result:
 
  LATTYP: Found a face centered orthorhombic cell.
 ALAT       =     6.8271506206
 B/A-ratio  =     1.1708685269
 C/A-ratio  =     1.5302020683
  
  Lattice vectors:
  
 A1 = (  -2.8261982500,  -2.8261982500,   5.2234600000)
 A2 = (  -2.4137622500,   2.4137622500,   5.2234600000)
 A3 = (  -5.2399605000,  -0.4124360000,   0.0000000000)
 
   8 primitive cells build up your supercell.
 

 Routine SETGRP: Setting up the symmetry group for a 
 base centered orthorhombic supercell.


 Subroutine GETGRP returns: Found  4 space group operations
 (whereof  2 operations were pure point group operations)
 out of a pool of  8 trial point group operations.


The static configuration has the point symmetry C_2 .
 The point group associated with its full space group is C_2v.


Analysis of symmetry for dynamics (positions and initial velocities):
=====================================================================
 Subroutine PRICEL returns following result:
 
  LATTYP: Found a face centered orthorhombic cell.
 ALAT       =     6.8271506206
 B/A-ratio  =     1.1708685269
 C/A-ratio  =     1.5302020683
  
  Lattice vectors:
  
 A1 = (  -2.8261982500,  -2.8261982500,   5.2234600000)
 A2 = (  -2.4137622500,   2.4137622500,   5.2234600000)
 A3 = (  -5.2399605000,  -0.4124360000,   0.0000000000)
 
   8 primitive cells build up your supercell.
 

 Routine SETGRP: Setting up the symmetry group for a 
 base centered orthorhombic supercell.


 Subroutine GETGRP returns: Found  4 space group operations
 (whereof  2 operations were pure point group operations)
 out of a pool of  8 trial point group operations.


The dynamic configuration has the point symmetry C_2 .
 The point group associated with its full space group is C_2v.


Analysis of structural, dynamic, and magnetic symmetry:
=====================================================================
 Subroutine PRICEL returns following result:
 
  LATTYP: Found a face centered orthorhombic cell.
 ALAT       =     6.8271506206
 B/A-ratio  =     1.1708685269
 C/A-ratio  =     1.5302020683
  
  Lattice vectors:
  
 A1 = (  -2.8261982500,  -2.8261982500,   5.2234600000)
 A2 = (  -2.4137622500,   2.4137622500,   5.2234600000)
 A3 = (  -5.2399605000,  -0.4124360000,   0.0000000000)
 
   8 primitive cells build up your supercell.
 

 Routine SETGRP: Setting up the symmetry group for a 
 base centered orthorhombic supercell.


 Subroutine GETGRP returns: Found  4 space group operations
 (whereof  2 operations were pure point group operations)
 out of a pool of  8 trial point group operations.


The magnetic configuration has the point symmetry C_2 .
 The point group associated with its full space group is C_2v.


 Subroutine INISYM returns: Found  4 space group operations
 (whereof  2 operations are pure point group operations),
 and found     8 'primitive' translations

 
 
 KPOINTS: Automatic mesh                          

Automatic generation of k-mesh.
Space group operators:
 irot       det(A)        alpha          n_x          n_y          n_z        tau_x        tau_y        tau_z
    1     1.000000     0.000000     1.000000     0.000000     0.000000     0.000000     0.000000     0.000000
    2     1.000000   179.999999     0.000000     0.000000     1.000000     0.000000     0.000000     0.000000
    3    -1.000000   180.000000     0.707107     0.707107     0.000000    -0.750000    -0.000000     0.750000
    4    -1.000000   180.000000     0.707107    -0.707107     0.000000    -0.750000    -0.000000     0.750000
 
 Subroutine IBZKPT returns following result:
 ===========================================
 
 Found      6 irreducible k-points:
 
 Following reciprocal coordinates:
            Coordinates               Weight
  0.000000  0.000000  0.000000      1.000000
  0.500000 -0.000000  0.000000      2.000000
  0.500000  0.500000  0.000000      1.000000
  0.000000  0.000000  0.500000      1.000000
  0.500000 -0.000000  0.500000      2.000000
  0.500000  0.500000  0.500000      1.000000
 
 Following cartesian coordinates:
            Coordinates               Weight
  0.000000  0.000000  0.000000      1.000000
  0.048008 -0.003779  0.000000      2.000000
  0.044229  0.044229  0.000000      1.000000
  0.000000  0.000000  0.047861      1.000000
  0.048008 -0.003779  0.047861      2.000000
  0.044229  0.044229  0.047861      1.000000
 
 TETIRR: Found     12 inequivalent tetrahedra from       48
 
 Subroutine IBZKPT_HF returns following result:
 ==============================================
 
 Found      8 k-points in 1st BZ
 the following      8 k-points will be used (e.g. in the exchange kernel)
 Following reciprocal coordinates:   # in IRBZ
  0.000000  0.000000  0.000000    0.12500000   1 t-inv F
  0.500000 -0.000000  0.000000    0.12500000   2 t-inv F
  0.500000  0.500000  0.000000    0.12500000   3 t-inv F
  0.000000  0.000000  0.500000    0.12500000   4 t-inv F
  0.500000 -0.000000  0.500000    0.12500000   5 t-inv F
  0.500000  0.500000  0.500000    0.12500000   6 t-inv F
  0.000000 -0.500000  0.000000    0.12500000   2 t-inv F spinflp
  0.000000 -0.500000  0.500000    0.12500000   5 t-inv F spinflp


--------------------------------------------------------------------------------------------------------




 Dimension of arrays:
   k-points           NKPTS =      6   k-points in BZ     NKDIM =      6   number of bands    NBANDS=    512
   number of dos      NEDOS =    301   number of ions     NIONS =     64
   non local maximal  LDIM  =      6   non local SUM 2l+1 LMDIM =     18
   total plane-waves  NPLWV = 829440
   max r-space proj   IRMAX =      1   max aug-charges    IRDMAX=  23114
   dimension x,y,z NGX =    96 NGY =   96 NGZ =   90
   dimension x,y,z NGXF=   192 NGYF=  192 NGZF=  180
   support grid    NGXF=   192 NGYF=  192 NGZF=  180
   ions per type =              32  16  16
   NGX,Y,Z   is equivalent  to a cutoff of  15.18, 15.18, 14.32 a.u.
   NGXF,Y,Z  is equivalent  to a cutoff of  30.36, 30.36, 28.64 a.u.

 SYSTEM =  CuFeS2                                  
 POSCAR =  Fe16 Cu16 S32                           

 Startparameter for this run:
   NWRITE =      2    write-flag & timer
   PREC   = accura    normal or accurate (medium, high low for compatibility)
   ISTART =      1    job   : 0-new  1-cont  2-samecut
   ICHARG =      1    charge: 1-file 2-atom 10-const
   ISPIN  =      2    spin polarized calculation?
   LNONCOLLINEAR =      F non collinear calculations
   LSORBIT =      F    spin-orbit coupling
   INIWAV =      1    electr: 0-lowe 1-rand  2-diag
   LASPH  =      F    aspherical Exc in radial PAW
   METAGGA=      F    non-selfconsistent MetaGGA calc.

 Electronic Relaxation 1
   ENCUT  =  700.0 eV  51.45 Ry    7.17 a.u.  22.68 22.68 22.54*2*pi/ulx,y,z
   ENINI  =  700.0     initial cutoff
   ENAUG  =  758.2 eV  augmentation charge cutoff
   NELM   =    500;   NELMIN=  2; NELMDL=  0     # of ELM steps 
   EDIFF  = 0.1E-07   stopping-criterion for ELM
   LREAL  =      F    real-space projection
   NLSPLINE    = F    spline interpolate recip. space projectors
   LCOMPAT=      F    compatible to vasp.4.4
   GGA_COMPAT  = T    GGA compatible to vasp.4.4-vasp.4.6
   LMAXPAW     = -100 max onsite density
   LMAXMIX     =    4 max onsite mixed and CHGCAR
   VOSKOWN=      0    Vosko Wilk Nusair interpolation
   ROPT   =    0.00000   0.00000   0.00000
 Ionic relaxation
   EDIFFG = -.1E-04   stopping-criterion for IOM
   NSW    =      0    number of steps for IOM
   NBLOCK =      1;   KBLOCK =      1    inner block; outer block 
   IBRION =     -1    ionic relax: 0-MD 1-quasi-New 2-CG
   NFREE  =      0    steps in history (QN), initial steepest desc. (CG)
   ISIF   =      2    stress and relaxation
   IWAVPR =     10    prediction:  0-non 1-charg 2-wave 3-comb
   ISYM   =      2    0-nonsym 1-usesym 2-fastsym
   LCORR  =      T    Harris-Foulkes like correction to forces

   POTIM  = 0.5000    time-step for ionic-motion
   TEIN   =    0.0    initial temperature
   TEBEG  =    0.0;   TEEND  =   0.0 temperature during run
   SMASS  =  -3.00    Nose mass-parameter (am)
   estimated Nose-frequenzy (Omega)   =  0.10E-29 period in steps =****** mass=  -0.253E-26a.u.
   SCALEE = 1.0000    scale energy and forces
   NPACO  =    256;   APACO  = 16.0  distance and # of slots for P.C.
   PSTRESS=    0.0 pullay stress

  Mass of Ions in am
   POMASS =  32.07 63.55 55.85
  Ionic Valenz
   ZVAL   =   6.00 17.00 14.00
  Atomic Wigner-Seitz radii
   RWIGS  =  -1.00 -1.00 -1.00
  virtual crystal weights 
   VCA    =   1.00  1.00  1.00
   NELECT =     688.0000    total number of electrons
   NUPDOWN=      -1.0000    fix difference up-down

 DOS related values:
   EMIN   =  10.00;   EMAX   =-10.00  energy-range for DOS
   EFERMI =   0.00
   ISMEAR =    -5;   SIGMA  =   0.03  broadening in eV -4-tet -1-fermi 0-gaus

 Electronic relaxation 2 (details)
   IALGO  =     38    algorithm
   LDIAG  =      T    sub-space diagonalisation (order eigenvalues)
   LSUBROT=      F    optimize rotation matrix (better conditioning)
   TURBO    =      0    0=normal 1=particle mesh
   IRESTART =      0    0=no restart 2=restart with 2 vectors
   NREBOOT  =      0    no. of reboots
   NMIN     =      0    reboot dimension
   EREF     =   0.00    reference energy to select bands
   IMIX   =      4    mixing-type and parameters
     AMIX     =   0.40;   BMIX     =  1.00
     AMIX_MAG =   1.60;   BMIX_MAG =  1.00
     AMIN     =   0.10
     WC   =   100.;   INIMIX=   1;  MIXPRE=   1;  MAXMIX= -45

 Intra band minimization:
   WEIMIN = 0.0000     energy-eigenvalue tresh-hold
   EBREAK =  0.49E-11  absolut break condition
   DEPER  =   0.30     relativ break condition  

   TIME   =   0.40     timestep for ELM

  volume/ion in A,a.u.               =      17.82       120.23
  Fermi-wavevector in a.u.,A,eV,Ry     =   1.383362  2.614175 26.037341  1.913691
  Thomas-Fermi vector in A             =   2.507967
 
 Write flags
   LWAVE        =      T    write WAVECAR
   LDOWNSAMPLE  =      F    k-point downsampling of WAVECAR
   LCHARG       =      T    write CHGCAR
   LVTOT        =      F    write LOCPOT, total local potential
   LVHAR        =      F    write LOCPOT, Hartree potential only
   LELF         =      F    write electronic localiz. function (ELF)
   LORBIT       =     11    0 simple, 1 ext, 2 COOP (PROOUT), +10 PAW based schemes


 Dipole corrections
   LMONO  =      F    monopole corrections only (constant potential shift)
   LDIPOL =      F    correct potential (dipole corrections)
   IDIPOL =      0    1-x, 2-y, 3-z, 4-all directions 
   EPSILON=  1.0000000 bulk dielectric constant

 LDA+U is selected, type is set to LDAUTYPE =  2
   angular momentum for each species LDAUL =     2    2    2
   U (eV)           for each species LDAUU =   0.0  0.1  4.7
   J (eV)           for each species LDAUJ =   0.0  0.0  0.0
 Exchange correlation treatment:
   GGA     =    PS    GGA type
   LEXCH   =    14    internal setting for exchange type
   VOSKOWN=      0    Vosko Wilk Nusair interpolation
   LHFCALC =     F    Hartree Fock is set to
   LHFONE  =     F    Hartree Fock one center treatment
   AEXX    =    0.0000 exact exchange contribution

 Linear response parameters
   LEPSILON=     F    determine dielectric tensor
   LRPA    =     F    only Hartree local field effects (RPA)
   LNABLA  =     F    use nabla operator in PAW spheres
   LVEL    =     F    velocity operator in full k-point grid
   LINTERFAST=   F  fast interpolation
   KINTER  =     0    interpolate to denser k-point grid
   CSHIFT  =0.1000    complex shift for real part using Kramers Kronig
   OMEGAMAX=  -1.0    maximum frequency
   DEG_THRESHOLD= 0.2000000E-02 threshold for treating states as degnerate
   RTIME   =   -0.100 relaxation time in fs
  (WPLASMAI=    0.000 imaginary part of plasma frequency in eV, 0.658/RTIME)
   DFIELD  = 0.0000000 0.0000000 0.0000000 field for delta impulse in time
 
 Orbital magnetization related:
   ORBITALMAG=     F  switch on orbital magnetization
   LCHIMAG   =     F  perturbation theory with respect to B field
   DQ        =  0.001000  dq finite difference perturbation B field
   LLRAUG    =     F  two centre corrections for induced B field

 PEAD related settings:
   LPEAD      =     T    switch on PEAD
   IPEAD      =     4    finite difference order for dpsi/dk
   LCALCPOL   =     T    calculate macroscopic polarization
   LCALCEPS   =     F    calculate dielectric tensor
   EFIELD_PEAD=    0.0000    0.0000    0.0000
   SKIP_EDOTP =     F
   LRPA       =     F
   SKIP_SCF   =     F


--------------------------------------------------------------------------------------------------------


 Static calculation
 charge density and potential will be updated during run
 spin polarized calculation
 Variant of blocked Davidson
 Davidson routine will perform the subspace rotation
 perform sub-space diagonalisation
    after iterative eigenvector-optimisation
 modified Broyden-mixing scheme, WC =      100.0
 initial mixing is a Kerker type mixing with AMIX =  0.4000 and BMIX =      1.0000
 Hartree-type preconditioning will be used
 using additional bands          168
 reciprocal scheme for non local part
 use partial core corrections
 calculate Harris-corrections to forces 
   (improved forces if not selfconsistent)
 use gradient corrections 
 use of overlap-Matrix (Vanderbilt PP)
 Fermi weights with tetrahedron method with Bloechl corrections


--------------------------------------------------------------------------------------------------------


  energy-cutoff  :      700.00
  volume of cell :     1140.26
      direct lattice vectors                 reciprocal lattice vectors
    10.479921000  0.824872000  0.000000000     0.096015404 -0.007557349  0.000000000
     0.824872000 10.479921000  0.000000000    -0.007557349  0.096015404  0.000000000
     0.000000000  0.000000000 10.446920000     0.000000000  0.000000000  0.095721993

  length of vectors
    10.512333613 10.512333613 10.446920000     0.096312363  0.096312363  0.095721993


 
 old parameters found on file WAVECAR:
  energy-cutoff  :      700.00
  volume of cell :     1140.26
      direct lattice vectors                 reciprocal lattice vectors
    10.479921000  0.824872000  0.000000000     0.096015404 -0.007557349  0.000000000
     0.824872000 10.479921000  0.000000000    -0.007557349  0.096015404  0.000000000
     0.000000000  0.000000000 10.446920000     0.000000000  0.000000000  0.095721993

  length of vectors

 
 k-points in units of 2pi/SCALE and weight: Automatic mesh                          
   0.00000000  0.00000000  0.00000000       0.125
   0.04800770 -0.00377867  0.00000000       0.250
   0.04422903  0.04422903  0.00000000       0.125
   0.00000000  0.00000000  0.04786100       0.125
   0.04800770 -0.00377867  0.04786100       0.250
   0.04422903  0.04422903  0.04786100       0.125
 
 k-points in reciprocal lattice and weights: Automatic mesh                          
   0.00000000  0.00000000  0.00000000       0.125
   0.50000000 -0.00000000  0.00000000       0.250
   0.50000000  0.50000000  0.00000000       0.125
   0.00000000  0.00000000  0.50000000       0.125
   0.50000000 -0.00000000  0.50000000       0.250
   0.50000000  0.50000000  0.50000000       0.125
 
 position of ions in fractional coordinates (direct lattice) 
   0.12599700  0.12581200  0.11656600
   0.62599700  0.12581200  0.11656600
   0.12599700  0.62581200  0.11656600
   0.62599700  0.62581200  0.11656600
   0.37400300  0.37418800  0.11656600
   0.87400300  0.37418800  0.11656600
   0.37400300  0.87418800  0.11656600
   0.87400300  0.87418800  0.11656600
   0.12418800  0.37400300  0.86656600
   0.62418800  0.37400300  0.86656600
   0.12418800  0.87400300  0.86656600
   0.62418800  0.87400300  0.86656600
   0.37581200  0.12599700  0.86656600
   0.87581200  0.12599700  0.86656600
   0.37581200  0.62599700  0.86656600
   0.87581200  0.62599700  0.86656600
   0.12400300  0.12418800  0.61656600
   0.62400300  0.12418800  0.61656600
   0.12400300  0.62418800  0.61656600
   0.62400300  0.62418800  0.61656600
   0.37599700  0.37581200  0.61656600
   0.87599700  0.37581200  0.61656600
   0.37599700  0.87581200  0.61656600
   0.87599700  0.87581200  0.61656600
   0.37418800  0.12400300  0.36656600
   0.87418800  0.12400300  0.36656600
   0.37418800  0.62400300  0.36656600
   0.87418800  0.62400300  0.36656600
   0.12581200  0.37599700  0.36656600
   0.62581200  0.37599700  0.36656600
   0.12581200  0.87599700  0.36656600
   0.62581200  0.87599700  0.36656600
   0.00000000  0.00000000  0.50737900
   0.50000000  0.00000000  0.50737900
   0.00000000  0.50000000  0.50737900
   0.50000000  0.50000000  0.50737900
   0.25000000  0.00000000  0.25737900
   0.75000000  0.00000000  0.25737900
   0.25000000  0.50000000  0.25737900
   0.75000000  0.50000000  0.25737900
   0.25000000  0.25000000  0.00737900
   0.75000000  0.25000000  0.00737900
   0.25000000  0.75000000  0.00737900
   0.75000000  0.75000000  0.00737900
   0.00000000  0.25000000  0.75737900
   0.50000000  0.25000000  0.75737900
   0.00000000  0.75000000  0.75737900
   0.50000000  0.75000000  0.75737900
   0.00000000  0.00000000  0.00948900
   0.50000000  0.00000000  0.00948900
   0.00000000  0.50000000  0.00948900
   0.50000000  0.50000000  0.00948900
   0.25000000  0.00000000  0.75948900
   0.75000000  0.00000000  0.75948900
   0.25000000  0.50000000  0.75948900
   0.75000000  0.50000000  0.75948900
   0.25000000  0.25000000  0.50948900
   0.75000000  0.25000000  0.50948900
   0.25000000  0.75000000  0.50948900
   0.75000000  0.75000000  0.50948900
   0.00000000  0.25000000  0.25948900
   0.50000000  0.25000000  0.25948900
   0.00000000  0.75000000  0.25948900
   0.50000000  0.75000000  0.25948900
 
 position of ions in cartesian coordinates  (Angst):
   1.42421740  1.42243122  1.21775568
   6.66417790  1.83486722  1.21775568
   1.83665340  6.66239172  1.21775568
   7.07661390  7.07482772  1.21775568
   4.22817910  4.22996528  1.21775568
   9.46813960  4.64240128  1.21775568
   4.64061510  9.46992578  1.21775568
   9.88057560  9.88236178  1.21775568
   1.60998503  4.02196110  9.05294568
   6.84994553  4.43439710  9.05294568
   2.02242103  9.26192160  9.05294568
   7.26238153  9.67435760  9.05294568
   4.04241147  1.63043540  9.05294568
   9.28237197  2.04287140  9.05294568
   4.45484747  6.87039590  9.05294568
   9.69480797  7.28283190  9.05294568
   1.40198085  1.40376703  6.44121568
   6.64194135  1.81620303  6.44121568
   1.81441685  6.64372753  6.44121568
   7.05437735  7.05616353  6.44121568
   4.25041565  4.24862947  6.44121568
   9.49037615  4.66106547  6.44121568
   4.66285165  9.48858997  6.44121568
   9.90281215  9.90102597  6.44121568
   4.02374728  1.60819885  3.82948568
   9.26370778  2.02063485  3.82948568
   4.43618328  6.84815935  3.82948568
   9.67614378  7.26059535  3.82948568
   1.62864922  4.04419765  3.82948568
   6.86860972  4.45663365  3.82948568
   2.04108522  9.28415815  3.82948568
   7.28104572  9.69659415  3.82948568
   0.00000000  0.00000000  5.30054782
   5.23996050  0.41243600  5.30054782
   0.41243600  5.23996050  5.30054782
   5.65239650  5.65239650  5.30054782
   2.61998025  0.20621800  2.68881782
   7.85994075  0.61865400  2.68881782
   3.03241625  5.44617850  2.68881782
   8.27237675  5.85861450  2.68881782
   2.82619825  2.82619825  0.07708782
   8.06615875  3.23863425  0.07708782
   3.23863425  8.06615875  0.07708782
   8.47859475  8.47859475  0.07708782
   0.20621800  2.61998025  7.91227782
   5.44617850  3.03241625  7.91227782
   0.61865400  7.85994075  7.91227782
   5.85861450  8.27237675  7.91227782
   0.00000000  0.00000000  0.09913082
   5.23996050  0.41243600  0.09913082
   0.41243600  5.23996050  0.09913082
   5.65239650  5.65239650  0.09913082
   2.61998025  0.20621800  7.93432082
   7.85994075  0.61865400  7.93432082
   3.03241625  5.44617850  7.93432082
   8.27237675  5.85861450  7.93432082
   2.82619825  2.82619825  5.32259082
   8.06615875  3.23863425  5.32259082
   3.23863425  8.06615875  5.32259082
   8.47859475  8.47859475  5.32259082
   0.20621800  2.61998025  2.71086082
   5.44617850  3.03241625  2.71086082
   0.61865400  7.85994075  2.71086082
   5.85861450  8.27237675  2.71086082
 


--------------------------------------------------------------------------------------------------------


 k-point  1 :   0.0000 0.0000 0.0000  plane waves:   47999
 k-point  2 :   0.5000-0.0000 0.0000  plane waves:   47996
 k-point  3 :   0.5000 0.5000 0.0000  plane waves:   47908
 k-point  4 :   0.0000 0.0000 0.5000  plane waves:   47946
 k-point  5 :   0.5000-0.0000 0.5000  plane waves:   47864
 k-point  6 :   0.5000 0.5000 0.5000  plane waves:   47912

 maximum and minimum number of plane-waves per node :     47999    47864

 maximum number of plane-waves:     47999
 maximum index in each direction: 
   IXMAX=   22   IYMAX=   22   IZMAX=   22
   IXMIN=  -23   IYMIN=  -23   IZMIN=  -23


 serial   3D FFT for wavefunctions
 parallel 3D FFT for charge:
    minimum data exchange during FFTs selected (reduces bandwidth)


 total amount of memory used by VASP MPI-rank0   299201. kBytes
=======================================================================

   base      :      30000. kBytes
   nonl-proj :     174030. kBytes
   fftplans  :       4588. kBytes
   grid      :      69719. kBytes
   one-center:       1990. kBytes
   wavefun   :      18874. kBytes
 
     INWAV:  cpu time   11.4164: real time   11.5590
 Broyden mixing: mesh for mixing (old mesh)
   NGX = 45   NGY = 45   NGZ = 45
  (NGX  =192   NGY  =192   NGZ  =180)
  gives a total of  91125 points

 initial charge density was supplied:
 number of electron     688.0000107 magnetization       0.0000000
 keeping initial charge density in first step


--------------------------------------------------------------------------------------------------------


 Maximum index for augmentation-charges          893 (set IRDMAX)


--------------------------------------------------------------------------------------------------------


 First call to EWALD:  gamma=   0.170
 Maximum number of real-space cells 3x 3x 3
 Maximum number of reciprocal cells 3x 3x 3

    FEWALD:  cpu time    0.0030: real time    0.0030


--------------------------------------- Iteration      1(   1)  ---------------------------------------


    POTLOK:  cpu time    0.3224: real time    0.3628
    SETDIJ:  cpu time    0.0148: real time    0.0149
     EDDAV:  cpu time  142.0867: real time  143.0825
 BZINTS: Fermi energy:  5.156966;688.000000 electrons
         Band energy:***********;  BLOECHL correction:  0.000000
       DOS:  cpu time    0.0033: real time    0.0034
    CHARGE:  cpu time    1.1653: real time    1.1735
    MIXING:  cpu time    0.0023: real time    0.0024
    --------------------------------------------
      LOOP:  cpu time  143.5949: real time  144.6395

 eigenvalue-minimisations  : 19456
 total energy-change (2. order) :-0.3032802E+03  (-0.1300637E+03)
 number of electron     688.0000107 magnetization       0.0000000
 augmentation part      282.9348292 magnetization       0.0000000

 Broyden mixing:
  rms(total) = 0.30576E+01    rms(broyden)= 0.30576E+01
  rms(prec ) = 0.30583E+01
  weight for this iteration     100.00

 Free energy of the ion-electron system (eV)
  ---------------------------------------------------
  alpha Z        PSCENC =      2377.65187833
  Ewald energy   TEWEN  =    -62762.43441846
  -Hartree energ DENC   =    -42765.36458559
  -exchange      EXHF   =         0.00000000
  -V(xc)+E(xc)   XCENC  =      3286.33782154
  PAW double counting   =    112053.82564031  -115744.18846767
  entropy T*S    EENTRO =         0.00000000
  eigenvalues    EBANDS =    -10769.17319551
  atomic energy  EATOM  =    114020.06510763
  Solvation  Ediel_sol  =         0.00000000
  ---------------------------------------------------
  free energy    TOTEN  =      -303.28021942 eV

  energy without entropy =     -303.28021942  energy(sigma->0) =     -303.28021942


--------------------------------------------------------------------------------------------------------




--------------------------------------- Iteration      1(   2)  ---------------------------------------


    POTLOK:  cpu time    0.1182: real time    0.1215
    SETDIJ:  cpu time    0.0127: real time    0.0128
     EDDAV:  cpu time   69.4767: real time   70.0149
 BZINTS: Fermi energy:  5.144684;688.000000 electrons
         Band energy:***********;  BLOECHL correction:  0.000000
       DOS:  cpu time    0.0031: real time    0.0031
    CHARGE:  cpu time    1.1636: real time    1.1719
    MIXING:  cpu time    0.0026: real time    0.0260
    --------------------------------------------
      LOOP:  cpu time   70.7769: real time   71.3502

 eigenvalue-minimisations  : 12800
 total energy-change (2. order) :-0.2189758E+02  (-0.2192646E+02)
 number of electron     688.0000107 magnetization       0.0000000
 augmentation part      281.7892060 magnetization       0.0000000

 Broyden mixing:
  rms(total) = 0.12440E+01    rms(broyden)= 0.12440E+01
  rms(prec ) = 0.12498E+01
  weight for this iteration     100.00

 eigenvalues of (default mixing * dielectric matrix)
  average eigenvalue GAMMA=   0.7021
  0.7021

 Free energy of the ion-electron system (eV)
  ---------------------------------------------------
  alpha Z        PSCENC =      2377.65187833
  Ewald energy   TEWEN  =    -62762.43441846
  -Hartree energ DENC   =    -42779.11261248
  -exchange      EXHF   =         0.00000000
  -V(xc)+E(xc)   XCENC  =      3286.93745597
  PAW double counting   =    114660.46300865  -118363.07269327
  entropy T*S    EENTRO =         0.00000000
  eigenvalues    EBANDS =    -10765.67552182
  atomic energy  EATOM  =    114020.06510763
  Solvation  Ediel_sol  =         0.00000000
  ---------------------------------------------------
  free energy    TOTEN  =      -325.17779546 eV

  energy without entropy =     -325.17779546  energy(sigma->0) =     -325.17779546


--------------------------------------------------------------------------------------------------------




--------------------------------------- Iteration      1(   3)  ---------------------------------------


    POTLOK:  cpu time    0.1157: real time    0.1199
    SETDIJ:  cpu time    0.0128: real time    0.0129
     EDDAV:  cpu time  145.3621: real time  146.3464
 BZINTS: Fermi energy:  5.113393;688.000000 electrons
         Band energy:***********;  BLOECHL correction:  0.000000
       DOS:  cpu time    0.0029: real time    0.0029
    CHARGE:  cpu time    1.4291: real time    1.4377
    MIXING:  cpu time    0.0017: real time    0.0023
    --------------------------------------------
      LOOP:  cpu time  146.9244: real time  147.9222

 eigenvalue-minimisations  : 19968
 total energy-change (2. order) :-0.2772563E+00  (-0.3390076E+00)
 number of electron     688.0000107 magnetization       0.0000000
 augmentation part      282.3249897 magnetization       0.0000000

 Broyden mixing:
  rms(total) = 0.91132E+00    rms(broyden)= 0.91131E+00
  rms(prec ) = 0.91529E+00
  weight for this iteration     100.00

 eigenvalues of (default mixing * dielectric matrix)
  average eigenvalue GAMMA=   0.5204
  0.5204  0.5204

 Free energy of the ion-electron system (eV)
  ---------------------------------------------------
  alpha Z        PSCENC =      2377.65187833
  Ewald energy   TEWEN  =    -62762.43441846
  -Hartree energ DENC   =    -42753.36215572
  -exchange      EXHF   =         0.00000000
  -V(xc)+E(xc)   XCENC  =      3286.32658401
  PAW double counting   =    113945.89484916  -117641.94034495
  entropy T*S    EENTRO =         0.00000000
  eigenvalues    EBANDS =    -10797.65655177
  atomic energy  EATOM  =    114020.06510763
  Solvation  Ediel_sol  =         0.00000000
  ---------------------------------------------------
  free energy    TOTEN  =      -325.45505177 eV

  energy without entropy =     -325.45505177  energy(sigma->0) =     -325.45505177


--------------------------------------------------------------------------------------------------------




--------------------------------------- Iteration      1(   4)  ---------------------------------------


    POTLOK:  cpu time    0.1328: real time    0.1353
    SETDIJ:  cpu time    0.0164: real time    0.0165
     EDDAV:  cpu time   79.7637: real time   80.3534
 BZINTS: Fermi energy:  5.106799;688.000000 electrons
         Band energy:***********;  BLOECHL correction:  0.000000
       DOS:  cpu time    0.0027: real time    0.0027
    CHARGE:  cpu time    1.1627: real time    1.1707
    MIXING:  cpu time    0.0016: real time    0.0023
    --------------------------------------------
      LOOP:  cpu time   81.0799: real time   81.6810

 eigenvalue-minimisations  : 13824
 total energy-change (2. order) : 0.1187850E-02  (-0.1328996E-01)
 number of electron     688.0000107 magnetization       0.0000000
 augmentation part      282.2357721 magnetization       0.0000000

 Broyden mixing:
  rms(total) = 0.78744E+00    rms(broyden)= 0.78744E+00
  rms(prec ) = 0.78782E+00
  weight for this iteration     100.00

 eigenvalues of (default mixing * dielectric matrix)
  average eigenvalue GAMMA=   0.5404
  0.6302  0.6302  0.3607

 Free energy of the ion-electron system (eV)
  ---------------------------------------------------
  alpha Z        PSCENC =      2377.65187833
  Ewald energy   TEWEN  =    -62762.43441846
  -Hartree energ DENC   =    -42756.48055551
  -exchange      EXHF   =         0.00000000
  -V(xc)+E(xc)   XCENC  =      3286.21924438
  PAW double counting   =    113714.46266569  -117410.70358841
  entropy T*S    EENTRO =         0.00000000
  eigenvalues    EBANDS =    -10794.23419757
  atomic energy  EATOM  =    114020.06510763
  Solvation  Ediel_sol  =         0.00000000
  ---------------------------------------------------
  free energy    TOTEN  =      -325.45386392 eV

  energy without entropy =     -325.45386392  energy(sigma->0) =     -325.45386392


--------------------------------------------------------------------------------------------------------




--------------------------------------- Iteration      1(   5)  ---------------------------------------


    POTLOK:  cpu time    0.1175: real time    0.1208
    SETDIJ:  cpu time    0.0128: real time    0.0128
     EDDAV:  cpu time  125.0674: real time  125.9221
 BZINTS: Fermi energy:  5.109565;688.000000 electrons
         Band energy:***********;  BLOECHL correction:  0.000000
       DOS:  cpu time    0.0027: real time    0.0027
    CHARGE:  cpu time    1.1674: real time    1.1751
    MIXING:  cpu time    0.0014: real time    0.0014
    --------------------------------------------
      LOOP:  cpu time  126.3691: real time  127.2349

 eigenvalue-minimisations  : 17408
 total energy-change (2. order) : 0.1049230E-03  (-0.1071433E-02)
 number of electron     688.0000107 magnetization       0.0000000
 augmentation part      282.2051599 magnetization       0.0000000

 Broyden mixing:
  rms(total) = 0.68511E+00    rms(broyden)= 0.68511E+00
  rms(prec ) = 0.68526E+00
  weight for this iteration     100.00

 eigenvalues of (default mixing * dielectric matrix)
  average eigenvalue GAMMA=   0.4519
  0.6473  0.6473  0.3531  0.1600

 Free energy of the ion-electron system (eV)
  ---------------------------------------------------
  alpha Z        PSCENC =      2377.65187833
  Ewald energy   TEWEN  =    -62762.43441846
  -Hartree energ DENC   =    -42760.97988227
  -exchange      EXHF   =         0.00000000
  -V(xc)+E(xc)   XCENC  =      3286.33163251
  PAW double counting   =    113483.77038230  -117179.50641926
  entropy T*S    EENTRO =         0.00000000
  eigenvalues    EBANDS =    -10790.35203976
  atomic energy  EATOM  =    114020.06510763
  Solvation  Ediel_sol  =         0.00000000
  ---------------------------------------------------
  free energy    TOTEN  =      -325.45375899 eV

  energy without entropy =     -325.45375899  energy(sigma->0) =     -325.45375899


--------------------------------------------------------------------------------------------------------




--------------------------------------- Iteration      1(   6)  ---------------------------------------


    POTLOK:  cpu time    0.1170: real time    0.1221
    SETDIJ:  cpu time    0.0128: real time    0.0129
     EDDAV:  cpu time  107.0246: real time  107.7765
 BZINTS: Fermi energy:  5.109283;688.000000 electrons
         Band energy:***********;  BLOECHL correction:  0.000000
       DOS:  cpu time    0.0027: real time    0.0027
    CHARGE:  cpu time    1.1635: real time    1.1713
    MIXING:  cpu time    0.0014: real time    0.0015
    --------------------------------------------
      LOOP:  cpu time  108.3221: real time  109.0869

 eigenvalue-minimisations  : 15872
 total energy-change (2. order) : 0.2268188E-03  (-0.5489101E-04)
 number of electron     688.0000107 magnetization       0.0000000
 augmentation part      282.2045051 magnetization       0.0000000

 Broyden mixing:
  rms(total) = 0.62893E+00    rms(broyden)= 0.62893E+00
  rms(prec ) = 0.62908E+00
  weight for this iteration     100.00

 eigenvalues of (default mixing * dielectric matrix)
  average eigenvalue GAMMA=   0.5993
  0.8165  0.8165  0.5111  0.5111  0.3416

 Free energy of the ion-electron system (eV)
  ---------------------------------------------------
  alpha Z        PSCENC =      2377.65187833
  Ewald energy   TEWEN  =    -62762.43441846
  -Hartree energ DENC   =    -42761.46011886
  -exchange      EXHF   =         0.00000000
  -V(xc)+E(xc)   XCENC  =      3286.32677835
  PAW double counting   =    113359.58818247  -117054.82306376
  entropy T*S    EENTRO =         0.00000000
  eigenvalues    EBANDS =    -10790.36787788
  atomic energy  EATOM  =    114020.06510763
  Solvation  Ediel_sol  =         0.00000000
  ---------------------------------------------------
  free energy    TOTEN  =      -325.45353217 eV

  energy without entropy =     -325.45353217  energy(sigma->0) =     -325.45353217


--------------------------------------------------------------------------------------------------------




--------------------------------------- Iteration      1(   7)  ---------------------------------------


    POTLOK:  cpu time    0.1183: real time    0.1225
    SETDIJ:  cpu time    0.0127: real time    0.0128
     EDDAV:  cpu time  131.8656: real time  132.7614
 BZINTS: Fermi energy:  5.109139;688.000000 electrons
         Band energy:***********;  BLOECHL correction:  0.000000
       DOS:  cpu time    0.0027: real time    0.0027
    CHARGE:  cpu time    1.1662: real time    1.1739
    MIXING:  cpu time    0.0015: real time    0.0015
    --------------------------------------------
      LOOP:  cpu time  133.1669: real time  134.0748

 eigenvalue-minimisations  : 17920
 total energy-change (2. order) : 0.7097974E-03  (-0.5341695E-04)
 number of electron     688.0000107 magnetization       0.0000000
 augmentation part      282.2315049 magnetization       0.0000000

 Broyden mixing:
  rms(total) = 0.47865E+00    rms(broyden)= 0.47865E+00
  rms(prec ) = 0.47874E+00
  weight for this iteration     100.00

 eigenvalues of (default mixing * dielectric matrix)
  average eigenvalue GAMMA=   0.7245
  1.1898  1.1898  0.5829  0.5829  0.4601  0.3416

 Free energy of the ion-electron system (eV)
  ---------------------------------------------------
  alpha Z        PSCENC =      2377.65187833
  Ewald energy   TEWEN  =    -62762.43441846
  -Hartree energ DENC   =    -42762.13245573
  -exchange      EXHF   =         0.00000000
  -V(xc)+E(xc)   XCENC  =      3286.31720215
  PAW double counting   =    113027.94669359  -116721.80509720
  entropy T*S    EENTRO =         0.00000000
  eigenvalues    EBANDS =    -10791.06173269
  atomic energy  EATOM  =    114020.06510763
  Solvation  Ediel_sol  =         0.00000000
  ---------------------------------------------------
  free energy    TOTEN  =      -325.45282238 eV

  energy without entropy =     -325.45282238  energy(sigma->0) =     -325.45282238


--------------------------------------------------------------------------------------------------------




--------------------------------------- Iteration      1(   8)  ---------------------------------------


    POTLOK:  cpu time    0.1183: real time    0.1216
    SETDIJ:  cpu time    0.0128: real time    0.0128
     EDDAV:  cpu time   90.2778: real time   90.9354
 BZINTS: Fermi energy:  5.109159;688.000000 electrons
         Band energy:***********;  BLOECHL correction:  0.000000
       DOS:  cpu time    0.0028: real time    0.0028
    CHARGE:  cpu time    1.1615: real time    1.1698
    MIXING:  cpu time    0.0015: real time    0.0015
    --------------------------------------------
      LOOP:  cpu time   91.5746: real time   92.2439

 eigenvalue-minimisations  : 14592
 total energy-change (2. order) : 0.3785838E-03  (-0.3854012E-04)
 number of electron     688.0000107 magnetization       0.0000000
 augmentation part      282.2414691 magnetization       0.0000000

 Broyden mixing:
  rms(total) = 0.29989E+00    rms(broyden)= 0.29989E+00
  rms(prec ) = 0.29999E+00
  weight for this iteration     100.00

 eigenvalues of (default mixing * dielectric matrix)
  average eigenvalue GAMMA=   0.7307
  1.3080  1.3080  0.6358  0.6358  0.4469  0.4469  0.3336

 Free energy of the ion-electron system (eV)
  ---------------------------------------------------
  alpha Z        PSCENC =      2377.65187833
  Ewald energy   TEWEN  =    -62762.43441846
  -Hartree energ DENC   =    -42763.79225411
  -exchange      EXHF   =         0.00000000
  -V(xc)+E(xc)   XCENC  =      3286.32819048
  PAW double counting   =    112644.64423813  -116337.05038398
  entropy T*S    EENTRO =         0.00000000
  eigenvalues    EBANDS =    -10790.86480181
  atomic energy  EATOM  =    114020.06510763
  Solvation  Ediel_sol  =         0.00000000
  ---------------------------------------------------
  free energy    TOTEN  =      -325.45244379 eV

  energy without entropy =     -325.45244379  energy(sigma->0) =     -325.45244379


--------------------------------------------------------------------------------------------------------




--------------------------------------- Iteration      1(   9)  ---------------------------------------


    POTLOK:  cpu time    0.1200: real time    0.1210
    SETDIJ:  cpu time    0.0127: real time    0.0128
     EDDAV:  cpu time  125.7719: real time  126.6324
 BZINTS: Fermi energy:  5.109189;688.000000 electrons
         Band energy:***********;  BLOECHL correction:  0.000000
       DOS:  cpu time    0.0032: real time    0.0032
    CHARGE:  cpu time    1.1622: real time    1.1704
    MIXING:  cpu time    0.0015: real time    0.0015
    --------------------------------------------
      LOOP:  cpu time  127.0714: real time  127.9412

 eigenvalue-minimisations  : 17152
 total energy-change (2. order) : 0.1058255E-03  (-0.6167081E-05)
 number of electron     688.0000107 magnetization      -0.0000000
 augmentation part      282.2483833 magnetization      -0.0000000

 Broyden mixing:
  rms(total) = 0.24231E+00    rms(broyden)= 0.24231E+00
  rms(prec ) = 0.24238E+00
  weight for this iteration     100.00

 eigenvalues of (default mixing * dielectric matrix)
  average eigenvalue GAMMA=   0.7686
  1.4526  1.4526  0.7263  0.7263  0.5020  0.5020  0.4476  0.3391

 Free energy of the ion-electron system (eV)
  ---------------------------------------------------
  alpha Z        PSCENC =      2377.65187833
  Ewald energy   TEWEN  =    -62762.43441846
  -Hartree energ DENC   =    -42764.08815066
  -exchange      EXHF   =         0.00000000
  -V(xc)+E(xc)   XCENC  =      3286.33161124
  PAW double counting   =    112529.64219965  -116221.61922764
  entropy T*S    EENTRO =         0.00000000
  eigenvalues    EBANDS =    -10791.00133805
  atomic energy  EATOM  =    114020.06510763
  Solvation  Ediel_sol  =         0.00000000
  ---------------------------------------------------
  free energy    TOTEN  =      -325.45233797 eV

  energy without entropy =     -325.45233797  energy(sigma->0) =     -325.45233797


--------------------------------------------------------------------------------------------------------




--------------------------------------- Iteration      1(  10)  ---------------------------------------


    POTLOK:  cpu time    0.1190: real time    0.1225
    SETDIJ:  cpu time    0.0128: real time    0.0129
     EDDAV:  cpu time  109.5567: real time  110.3265
 BZINTS: Fermi energy:  5.109273;688.000000 electrons
         Band energy:***********;  BLOECHL correction:  0.000000
       DOS:  cpu time    0.0027: real time    0.0027
    CHARGE:  cpu time    1.1622: real time    1.1701
    MIXING:  cpu time    0.0016: real time    0.0016
    --------------------------------------------
      LOOP:  cpu time  110.8550: real time  111.6363

 eigenvalue-minimisations  : 15872
 total energy-change (2. order) : 0.1586453E-03  (-0.2267219E-04)
 number of electron     688.0000107 magnetization      -0.0000000
 augmentation part      282.2644439 magnetization      -0.0000000

 Broyden mixing:
  rms(total) = 0.10677E+00    rms(broyden)= 0.10677E+00
  rms(prec ) = 0.10679E+00
  weight for this iteration     100.00

 eigenvalues of (default mixing * dielectric matrix)
  average eigenvalue GAMMA=   0.9024
  1.8720  1.8720  0.9380  0.9380  0.5892  0.5892  0.4931  0.4931  0.3370

 Free energy of the ion-electron system (eV)
  ---------------------------------------------------
  alpha Z        PSCENC =      2377.65187833
  Ewald energy   TEWEN  =    -62762.43441846
  -Hartree energ DENC   =    -42764.79932336
  -exchange      EXHF   =         0.00000000
  -V(xc)+E(xc)   XCENC  =      3286.33572150
  PAW double counting   =    112259.03481132  -115950.03372087
  entropy T*S    EENTRO =         0.00000000
  eigenvalues    EBANDS =    -10791.27223540
  atomic energy  EATOM  =    114020.06510763
  Solvation  Ediel_sol  =         0.00000000
  ---------------------------------------------------
  free energy    TOTEN  =      -325.45217932 eV

  energy without entropy =     -325.45217932  energy(sigma->0) =     -325.45217932


--------------------------------------------------------------------------------------------------------




--------------------------------------- Iteration      1(  11)  ---------------------------------------


    POTLOK:  cpu time    0.1207: real time    0.1218
    SETDIJ:  cpu time    0.0127: real time    0.0127
     EDDAV:  cpu time  104.1942: real time  104.9263
 BZINTS: Fermi energy:  5.109269;688.000000 electrons
         Band energy:***********;  BLOECHL correction:  0.000000
       DOS:  cpu time    0.0028: real time    0.0028
    CHARGE:  cpu time    1.1625: real time    1.1704
    MIXING:  cpu time    0.0017: real time    0.0017
    --------------------------------------------
      LOOP:  cpu time  105.4946: real time  106.2357

 eigenvalue-minimisations  : 15360
 total energy-change (2. order) : 0.2239809E-04  (-0.2768262E-05)
 number of electron     688.0000107 magnetization      -0.0000000
 augmentation part      282.2696137 magnetization      -0.0000000

 Broyden mixing:
  rms(total) = 0.61837E-01    rms(broyden)= 0.61837E-01
  rms(prec ) = 0.61854E-01
  weight for this iteration     100.00

 eigenvalues of (default mixing * dielectric matrix)
  average eigenvalue GAMMA=   0.9464
  2.1459  2.1459  0.9937  0.9937  0.6528  0.6528  0.3375  0.5221  0.5221  0.4977

 Free energy of the ion-electron system (eV)
  ---------------------------------------------------
  alpha Z        PSCENC =      2377.65187833
  Ewald energy   TEWEN  =    -62762.43441846
  -Hartree energ DENC   =    -42764.97347487
  -exchange      EXHF   =         0.00000000
  -V(xc)+E(xc)   XCENC  =      3286.33649278
  PAW double counting   =    112173.69340294  -115864.42693581
  entropy T*S    EENTRO =         0.00000000
  eigenvalues    EBANDS =    -10791.36420946
  atomic energy  EATOM  =    114020.06510763
  Solvation  Ediel_sol  =         0.00000000
  ---------------------------------------------------
  free energy    TOTEN  =      -325.45215692 eV

  energy without entropy =     -325.45215692  energy(sigma->0) =     -325.45215692


--------------------------------------------------------------------------------------------------------




--------------------------------------- Iteration      1(  12)  ---------------------------------------


    POTLOK:  cpu time    0.1163: real time    0.1214
    SETDIJ:  cpu time    0.0131: real time    0.0132
     EDDAV:  cpu time  115.0148: real time  115.8044
 BZINTS: Fermi energy:  5.109318;688.000000 electrons
         Band energy:***********;  BLOECHL correction:  0.000000
       DOS:  cpu time    0.0027: real time    0.0027
    CHARGE:  cpu time    1.1631: real time    1.1709
    MIXING:  cpu time    0.0019: real time    0.0141
    --------------------------------------------
      LOOP:  cpu time  116.3120: real time  117.1266

 eigenvalue-minimisations  : 16128
 total energy-change (2. order) : 0.9579599E-05  (-0.6642397E-06)
 number of electron     688.0000107 magnetization      -0.0000000
 augmentation part      282.2709171 magnetization      -0.0000000

 Broyden mixing:
  rms(total) = 0.33704E-01    rms(broyden)= 0.33704E-01
  rms(prec ) = 0.33715E-01
  weight for this iteration     100.00

 eigenvalues of (default mixing * dielectric matrix)
  average eigenvalue GAMMA=   1.0365
  2.5529  2.5529  1.1339  1.1339  0.7779  0.7779  0.5614  0.5614  0.3373  0.5059
  0.5059

 Free energy of the ion-electron system (eV)
  ---------------------------------------------------
  alpha Z        PSCENC =      2377.65187833
  Ewald energy   TEWEN  =    -62762.43441846
  -Hartree energ DENC   =    -42765.11892298
  -exchange      EXHF   =         0.00000000
  -V(xc)+E(xc)   XCENC  =      3286.33991623
  PAW double counting   =    112123.21564282  -115813.82296494
  entropy T*S    EENTRO =         0.00000000
  eigenvalues    EBANDS =    -10791.34838598
  atomic energy  EATOM  =    114020.06510763
  Solvation  Ediel_sol  =         0.00000000
  ---------------------------------------------------
  free energy    TOTEN  =      -325.45214735 eV

  energy without entropy =     -325.45214735  energy(sigma->0) =     -325.45214735


--------------------------------------------------------------------------------------------------------




--------------------------------------- Iteration      1(  13)  ---------------------------------------


    POTLOK:  cpu time    0.1207: real time    0.1219
    SETDIJ:  cpu time    0.0126: real time    0.0127
     EDDAV:  cpu time  110.0656: real time  110.8307
 BZINTS: Fermi energy:  5.109333;688.000000 electrons
         Band energy:***********;  BLOECHL correction:  0.000000
       DOS:  cpu time    0.0027: real time    0.0027
    CHARGE:  cpu time    1.1611: real time    1.1687
    MIXING:  cpu time    0.0018: real time    0.0018
    --------------------------------------------
      LOOP:  cpu time  111.3646: real time  112.1385

 eigenvalue-minimisations  : 15872
 total energy-change (2. order) : 0.7118797E-05  (-0.6332465E-06)
 number of electron     688.0000107 magnetization      -0.0000000
 augmentation part      282.2734808 magnetization      -0.0000000

 Broyden mixing:
  rms(total) = 0.86893E-02    rms(broyden)= 0.86893E-02
  rms(prec ) = 0.86945E-02
  weight for this iteration     100.00

 eigenvalues of (default mixing * dielectric matrix)
  average eigenvalue GAMMA=   1.1519
  2.9923  2.9923  1.3868  1.3868  0.9007  0.9007  0.3373  0.6329  0.6329  0.5534
  0.5534  0.5527

 Free energy of the ion-electron system (eV)
  ---------------------------------------------------
  alpha Z        PSCENC =      2377.65187833
  Ewald energy   TEWEN  =    -62762.43441846
  -Hartree energ DENC   =    -42765.25860865
  -exchange      EXHF   =         0.00000000
  -V(xc)+E(xc)   XCENC  =      3286.34084169
  PAW double counting   =    112072.94475294  -115763.38055186
  entropy T*S    EENTRO =         0.00000000
  eigenvalues    EBANDS =    -10791.38114183
  atomic energy  EATOM  =    114020.06510763
  Solvation  Ediel_sol  =         0.00000000
  ---------------------------------------------------
  free energy    TOTEN  =      -325.45214023 eV

  energy without entropy =     -325.45214023  energy(sigma->0) =     -325.45214023


--------------------------------------------------------------------------------------------------------




--------------------------------------- Iteration      1(  14)  ---------------------------------------


    POTLOK:  cpu time    0.1204: real time    0.1214
    SETDIJ:  cpu time    0.0127: real time    0.0128
     EDDAV:  cpu time  122.1413: real time  122.9677
 BZINTS: Fermi energy:  5.109337;688.000000 electrons
         Band energy:***********;  BLOECHL correction:  0.000000
       DOS:  cpu time    0.0027: real time    0.0027
    CHARGE:  cpu time    1.1667: real time    1.1747
    MIXING:  cpu time    0.0020: real time    0.0020
    --------------------------------------------
      LOOP:  cpu time  123.4459: real time  124.2813

 eigenvalue-minimisations  : 16896
 total energy-change (2. order) : 0.1317268E-05  (-0.1392603E-06)
 number of electron     688.0000107 magnetization       0.0000000
 augmentation part      282.2746610 magnetization       0.0000000

 Broyden mixing:
  rms(total) = 0.13448E-02    rms(broyden)= 0.13448E-02
  rms(prec ) = 0.13462E-02
  weight for this iteration     100.00

 eigenvalues of (default mixing * dielectric matrix)
  average eigenvalue GAMMA=   1.1925
  3.0934  3.0934  1.5511  1.5511  1.0156  1.0156  0.3373  0.7503  0.7503  0.5764
  0.5764  0.5960  0.5960

 Free energy of the ion-electron system (eV)
  ---------------------------------------------------
  alpha Z        PSCENC =      2377.65187833
  Ewald energy   TEWEN  =    -62762.43441846
  -Hartree energ DENC   =    -42765.29443987
  -exchange      EXHF   =         0.00000000
  -V(xc)+E(xc)   XCENC  =      3286.34072561
  PAW double counting   =    112057.34913037  -115747.73098431
  entropy T*S    EENTRO =         0.00000000
  eigenvalues    EBANDS =    -10791.39913819
  atomic energy  EATOM  =    114020.06510763
  Solvation  Ediel_sol  =         0.00000000
  ---------------------------------------------------
  free energy    TOTEN  =      -325.45213891 eV

  energy without entropy =     -325.45213891  energy(sigma->0) =     -325.45213891


--------------------------------------------------------------------------------------------------------




--------------------------------------- Iteration      1(  15)  ---------------------------------------


    POTLOK:  cpu time    0.1188: real time    0.1210
    SETDIJ:  cpu time    0.0129: real time    0.0130
     EDDAV:  cpu time  106.3001: real time  107.0476
 BZINTS: Fermi energy:  5.106693;688.000000 electrons
         Band energy:***********;  BLOECHL correction:  0.000000
       DOS:  cpu time    0.0028: real time    0.0028
    CHARGE:  cpu time    1.1639: real time    1.1725
    MIXING:  cpu time    0.0020: real time    0.0020
    --------------------------------------------
      LOOP:  cpu time  107.6005: real time  108.3590

 eigenvalue-minimisations  : 15616
 total energy-change (2. order) : 0.2278830E-06  (-0.1996652E-07)
 number of electron     688.0000107 magnetization       0.0000000
 augmentation part      282.2749483 magnetization       0.0000000

 Broyden mixing:
  rms(total) = 0.25889E-03    rms(broyden)= 0.25889E-03
  rms(prec ) = 0.26291E-03
  weight for this iteration     100.00

 eigenvalues of (default mixing * dielectric matrix)
  average eigenvalue GAMMA=   1.1792
  3.1078  3.1078  1.6120  1.6120  1.0648  1.0648  0.7935  0.7935  0.3373  0.5803
  0.5803  0.6368  0.6368  0.5815

 Free energy of the ion-electron system (eV)
  ---------------------------------------------------
  alpha Z        PSCENC =      2377.65187833
  Ewald energy   TEWEN  =    -62762.43441846
  -Hartree energ DENC   =    -42765.30115714
  -exchange      EXHF   =         0.00000000
  -V(xc)+E(xc)   XCENC  =      3286.34048389
  PAW double counting   =    112053.85843566  -115744.23099895
  entropy T*S    EENTRO =         0.00000000
  eigenvalues    EBANDS =    -10791.40146963
  atomic energy  EATOM  =    114020.06510763
  Solvation  Ediel_sol  =         0.00000000
  ---------------------------------------------------
  free energy    TOTEN  =      -325.45213868 eV

  energy without entropy =     -325.45213868  energy(sigma->0) =     -325.45213868


--------------------------------------------------------------------------------------------------------




--------------------------------------- Iteration      1(  16)  ---------------------------------------


    POTLOK:  cpu time    0.1197: real time    0.1206
    SETDIJ:  cpu time    0.0129: real time    0.0130
     EDDAV:  cpu time  103.4455: real time  104.1574
 BZINTS: Fermi energy:  5.240013;688.000000 electrons
         Band energy:***********;  BLOECHL correction:  0.000000
       DOS:  cpu time    0.0032: real time    0.0032
    CHARGE:  cpu time    1.1629: real time    1.1710
    MIXING:  cpu time    0.0022: real time    0.0022
    --------------------------------------------
      LOOP:  cpu time  104.7464: real time  105.4674

 eigenvalue-minimisations  : 14336
 total energy-change (2. order) :-0.1354783E-07  (-0.2235870E-08)
 number of electron     688.0000107 magnetization      -0.0000000
 augmentation part      282.2748597 magnetization      -0.0000000

 Broyden mixing:
  rms(total) = 0.45495E-04    rms(broyden)= 0.45493E-04
  rms(prec ) = 0.47351E-04
  weight for this iteration     100.00

 eigenvalues of (default mixing * dielectric matrix)
  average eigenvalue GAMMA=   1.1965
  3.0182  3.0182  1.8147  1.8147  1.1805  1.1805  0.9072  0.9072  0.3373  0.7070
  0.7070  0.5763  0.5763  0.6013  0.6013

 Free energy of the ion-electron system (eV)
  ---------------------------------------------------
  alpha Z        PSCENC =      2377.65187833
  Ewald energy   TEWEN  =    -62762.43441846
  -Hartree energ DENC   =    -42765.30094242
  -exchange      EXHF   =         0.00000000
  -V(xc)+E(xc)   XCENC  =      3286.34043987
  PAW double counting   =    112054.38823849  -115744.76281768
  entropy T*S    EENTRO =         0.00000000
  eigenvalues    EBANDS =    -10791.39962445
  atomic energy  EATOM  =    114020.06510763
  Solvation  Ediel_sol  =         0.00000000
  ---------------------------------------------------
  free energy    TOTEN  =      -325.45213869 eV

  energy without entropy =     -325.45213869  energy(sigma->0) =     -325.45213869


--------------------------------------------------------------------------------------------------------




--------------------------------------- Iteration      1(  17)  ---------------------------------------


    POTLOK:  cpu time    0.1192: real time    0.1203
    SETDIJ:  cpu time    0.0129: real time    0.0130
     EDDAV:  cpu time   66.4516: real time   66.9313
 BZINTS: Fermi energy:  5.229316;688.000000 electrons
         Band energy:***********;  BLOECHL correction:  0.000000
       DOS:  cpu time    0.0032: real time    0.0032
    CHARGE:  cpu time    1.1867: real time    1.1945
    MIXING:  cpu time    0.0022: real time    0.0022
    --------------------------------------------
      LOOP:  cpu time   67.7760: real time   68.2647

 eigenvalue-minimisations  :  9984
 total energy-change (2. order) : 0.1121953E-07  (-0.1619537E-09)
 number of electron     688.0000107 magnetization      -0.0000000
 augmentation part      282.2748527 magnetization      -0.0000000

 Broyden mixing:
  rms(total) = 0.99893E-04    rms(broyden)= 0.99893E-04
  rms(prec ) = 0.10074E-03
  weight for this iteration     100.00

 eigenvalues of (default mixing * dielectric matrix)
  average eigenvalue GAMMA=   1.2665
  3.4376  3.4376  1.9877  1.9877  1.2847  1.2847  0.9620  0.9620  0.3373  0.7780
  0.7780  0.5775  0.5775  0.6373  0.6373  0.5966

 Free energy of the ion-electron system (eV)
  ---------------------------------------------------
  alpha Z        PSCENC =      2377.65187833
  Ewald energy   TEWEN  =    -62762.43441846
  -Hartree energ DENC   =    -42765.30084546
  -exchange      EXHF   =         0.00000000
  -V(xc)+E(xc)   XCENC  =      3286.34045384
  PAW double counting   =    112054.57634352  -115744.95109310
  entropy T*S    EENTRO =         0.00000000
  eigenvalues    EBANDS =    -10791.39956498
  atomic energy  EATOM  =    114020.06510763
  Solvation  Ediel_sol  =         0.00000000
  ---------------------------------------------------
  free energy    TOTEN  =      -325.45213868 eV

  energy without entropy =     -325.45213868  energy(sigma->0) =     -325.45213868


--------------------------------------------------------------------------------------------------------




--------------------------------------- Iteration      1(  18)  ---------------------------------------


    POTLOK:  cpu time    0.1195: real time    0.1208
    SETDIJ:  cpu time    0.0130: real time    0.0130
     EDDAV:  cpu time   89.6675: real time   90.2911
 BZINTS: Fermi energy:  5.228370;688.000000 electrons
         Band energy:***********;  BLOECHL correction:  0.000000
       DOS:  cpu time    0.0032: real time    0.0032
    CHARGE:  cpu time    1.1618: real time    1.1696
    MIXING:  cpu time    0.0023: real time    0.0023
    --------------------------------------------
[...]
   -.412E+02 0.122E+01 0.480E+02   0.420E+02 -.117E+01 -.484E+02   -.802E+00 -.447E-01 0.448E+00   -.189E-05 -.373E-06 0.134E-05
   -.412E+02 0.122E+01 0.480E+02   0.420E+02 -.117E+01 -.484E+02   -.802E+00 -.447E-01 0.448E+00   -.189E-05 -.373E-06 0.134E-05
   -.412E+02 0.122E+01 0.480E+02   0.420E+02 -.117E+01 -.484E+02   -.802E+00 -.447E-01 0.448E+00   -.189E-05 -.373E-06 0.134E-05
   -.412E+02 0.122E+01 0.480E+02   0.420E+02 -.117E+01 -.484E+02   -.802E+00 -.447E-01 0.448E+00   -.189E-05 -.373E-06 0.134E-05
   0.412E+02 -.122E+01 0.480E+02   -.420E+02 0.117E+01 -.484E+02   0.802E+00 0.447E-01 0.448E+00   0.189E-05 0.373E-06 0.134E-05
   0.412E+02 -.122E+01 0.480E+02   -.420E+02 0.117E+01 -.484E+02   0.802E+00 0.447E-01 0.448E+00   0.189E-05 0.373E-06 0.134E-05
   0.412E+02 -.122E+01 0.480E+02   -.420E+02 0.117E+01 -.484E+02   0.802E+00 0.447E-01 0.448E+00   0.189E-05 0.373E-06 0.134E-05
   0.412E+02 -.122E+01 0.480E+02   -.420E+02 0.117E+01 -.484E+02   0.802E+00 0.447E-01 0.448E+00   0.189E-05 0.373E-06 0.134E-05
   0.122E+01 -.412E+02 0.480E+02   -.117E+01 0.420E+02 -.484E+02   -.447E-01 -.802E+00 0.448E+00   -.373E-06 -.189E-05 0.134E-05
   0.122E+01 -.412E+02 0.480E+02   -.117E+01 0.420E+02 -.484E+02   -.447E-01 -.802E+00 0.448E+00   -.373E-06 -.189E-05 0.134E-05
   0.122E+01 -.412E+02 0.480E+02   -.117E+01 0.420E+02 -.484E+02   -.447E-01 -.802E+00 0.448E+00   -.373E-06 -.189E-05 0.134E-05
   0.122E+01 -.412E+02 0.480E+02   -.117E+01 0.420E+02 -.484E+02   -.447E-01 -.802E+00 0.448E+00   -.373E-06 -.189E-05 0.134E-05
   -.122E+01 0.412E+02 0.480E+02   0.117E+01 -.420E+02 -.484E+02   0.447E-01 0.802E+00 0.448E+00   0.373E-06 0.189E-05 0.134E-05
   -.122E+01 0.412E+02 0.480E+02   0.117E+01 -.420E+02 -.484E+02   0.447E-01 0.802E+00 0.448E+00   0.373E-06 0.189E-05 0.134E-05
   -.122E+01 0.412E+02 0.480E+02   0.117E+01 -.420E+02 -.484E+02   0.447E-01 0.802E+00 0.448E+00   0.373E-06 0.189E-05 0.134E-05
   -.122E+01 0.412E+02 0.480E+02   0.117E+01 -.420E+02 -.484E+02   0.447E-01 0.802E+00 0.448E+00   0.373E-06 0.189E-05 0.134E-05
   -.164E-06 -.674E-07 -.563E+02   -.133E-12 -.142E-13 0.540E+02   0.565E-25 0.194E-25 0.225E+01   -.555E-13 0.406E-12 -.460E-05
   -.164E-06 -.674E-07 -.563E+02   -.906E-13 0.568E-13 0.540E+02   -.594E-25 -.646E-26 0.225E+01   -.507E-12 0.411E-12 -.460E-05
   -.164E-06 -.674E-07 -.563E+02   -.119E-12 0.675E-13 0.540E+02   -.646E-26 0.388E-25 0.225E+01   -.108E-12 -.250E-12 -.460E-05
   -.164E-06 -.674E-07 -.563E+02   -.119E-12 0.568E-13 0.540E+02   0.202E-26 -.355E-25 0.225E+01   -.183E-12 -.120E-12 -.460E-05
   -.674E-07 -.164E-06 -.563E+02   -.227E-12 0.853E-13 0.540E+02   -.840E-25 0.129E-25 0.225E+01   -.358E-12 0.490E-12 -.460E-05
   -.674E-07 -.164E-06 -.563E+02   -.213E-12 0.711E-13 0.540E+02   0.747E-26 -.808E-25 0.225E+01   -.102E-12 0.487E-12 -.460E-05
   -.674E-07 -.164E-06 -.563E+02   -.270E-12 0.853E-13 0.540E+02   -.485E-26 0.110E-24 0.225E+01   -.410E-12 -.257E-12 -.460E-05
   -.674E-07 -.164E-06 -.563E+02   -.227E-12 0.853E-13 0.540E+02   0.137E-25 -.258E-25 0.225E+01   -.262E-13 -.429E-12 -.460E-05
   -.164E-06 -.674E-07 -.563E+02   -.639E-13 0.657E-13 0.540E+02   0.533E-25 0.129E-25 0.225E+01   -.162E-12 -.237E-12 -.460E-05
   -.164E-06 -.673E-07 -.563E+02   -.355E-13 0.551E-13 0.540E+02   0.652E-25 -.323E-26 0.225E+01   -.398E-12 -.130E-12 -.460E-05
   -.164E-06 -.674E-07 -.563E+02   -.284E-13 0.444E-13 0.540E+02   0.808E-26 0.388E-25 0.225E+01   -.334E-12 0.303E-12 -.460E-05
   -.164E-06 -.674E-07 -.563E+02   0.000E+00 0.586E-13 0.540E+02   -.444E-26 -.113E-25 0.225E+01   -.272E-12 0.415E-12 -.460E-05
   -.674E-07 -.164E-06 -.563E+02   -.231E-12 0.875E-13 0.540E+02   -.434E-25 -.307E-25 0.225E+01   0.146E-12 -.233E-12 -.460E-05
   -.674E-07 -.164E-06 -.563E+02   -.200E-12 0.873E-13 0.540E+02   0.346E-25 -.355E-25 0.225E+01   -.336E-12 -.213E-12 -.460E-05
   -.674E-07 -.164E-06 -.563E+02   -.256E-12 0.760E-13 0.540E+02   -.323E-26 0.469E-25 0.225E+01   0.189E-12 0.489E-12 -.460E-05
   -.674E-07 -.164E-06 -.563E+02   -.197E-12 0.899E-13 0.540E+02   -.166E-25 0.129E-25 0.225E+01   -.563E-12 0.528E-12 -.460E-05
   0.303E-07 -.264E-07 -.454E+02   0.995E-13 -.284E-13 0.428E+02   0.808E-27 -.517E-25 0.260E+01   0.716E-14 0.225E-12 -.107E-04
   0.303E-07 -.264E-07 -.454E+02   0.114E-12 -.853E-13 0.428E+02   -.448E-25 -.258E-25 0.260E+01   -.584E-12 0.498E-12 -.107E-04
   0.303E-07 -.264E-07 -.454E+02   0.639E-13 -.142E-13 0.428E+02   -.242E-25 0.258E-25 0.260E+01   0.727E-13 -.334E-12 -.107E-04
   0.303E-07 -.264E-07 -.454E+02   0.782E-13 -.142E-13 0.428E+02   -.174E-25 0.323E-25 0.260E+01   -.508E-12 -.370E-12 -.107E-04
   -.264E-07 0.303E-07 -.454E+02   0.817E-13 0.924E-13 0.428E+02   -.265E-26 0.497E-25 0.260E+01   -.454E-12 0.217E-12 -.107E-04
   -.264E-07 0.303E-07 -.454E+02   0.110E-12 0.853E-13 0.428E+02   -.226E-25 0.323E-25 0.260E+01   -.291E-12 0.326E-12 -.107E-04
   -.264E-07 0.303E-07 -.454E+02   0.888E-13 0.568E-13 0.428E+02   0.162E-25 -.775E-25 0.260E+01   -.459E-12 -.242E-12 -.107E-04
   -.264E-07 0.303E-07 -.454E+02   0.604E-13 0.568E-13 0.428E+02   0.105E-25 -.129E-25 0.260E+01   -.206E-12 -.327E-12 -.107E-04
   0.303E-07 -.264E-07 -.454E+02   0.782E-13 -.764E-13 0.428E+02   0.897E-25 -.452E-25 0.260E+01   -.627E-12 -.463E-12 -.107E-04
   0.303E-07 -.264E-07 -.454E+02   0.639E-13 -.693E-13 0.428E+02   -.254E-25 -.129E-25 0.260E+01   0.663E-13 -.332E-12 -.107E-04
   0.303E-07 -.264E-07 -.454E+02   0.711E-13 -.693E-13 0.428E+02   0.537E-25 -.452E-25 0.260E+01   -.599E-12 0.486E-12 -.107E-04
   0.303E-07 -.264E-07 -.454E+02   0.853E-13 -.977E-13 0.428E+02   -.808E-27 -.258E-25 0.260E+01   -.539E-13 0.340E-12 -.107E-04
   -.264E-07 0.303E-07 -.454E+02   0.101E-12 0.133E-13 0.428E+02   -.194E-25 0.420E-25 0.260E+01   -.155E-12 -.322E-12 -.107E-04
   -.264E-07 0.303E-07 -.454E+02   0.864E-13 0.125E-13 0.428E+02   -.485E-26 0.388E-25 0.260E+01   -.403E-12 -.236E-12 -.107E-04
   -.264E-07 0.303E-07 -.454E+02   0.909E-13 -.203E-14 0.428E+02   0.202E-25 0.129E-24 0.260E+01   -.138E-12 0.326E-12 -.107E-04
   -.264E-07 0.302E-07 -.454E+02   0.481E-13 0.541E-13 0.428E+02   -.307E-25 0.388E-25 0.260E+01   -.553E-12 0.450E-12 -.107E-04
 -----------------------------------------------------------------------------------------------
   -.189E-05 -.189E-05 -.920E+02   0.308E-12 0.284E-12 -.469E-12   -.182E-14 -.555E-15 0.920E+02   -.709E-11 0.465E-11 -.202E-03
 
 
 POSITION                                       TOTAL-FORCE (eV/Angst)
 -----------------------------------------------------------------------------------
      1.42422      1.42243      1.21776         0.000283     -0.001051     -0.008658
      6.66418      1.83487      1.21776         0.000283     -0.001051     -0.008658
      1.83665      6.66239      1.21776         0.000283     -0.001051     -0.008658
      7.07661      7.07483      1.21776         0.000283     -0.001051     -0.008658
      4.22818      4.22997      1.21776        -0.000283      0.001051     -0.008658
      9.46814      4.64240      1.21776        -0.000283      0.001051     -0.008658
      4.64062      9.46993      1.21776        -0.000283      0.001051     -0.008658
      9.88058      9.88236      1.21776        -0.000283      0.001051     -0.008658
      1.60999      4.02196      9.05295         0.001051     -0.000283     -0.008658
      6.84995      4.43440      9.05295         0.001051     -0.000283     -0.008658
      2.02242      9.26192      9.05295         0.001051     -0.000283     -0.008658
      7.26238      9.67436      9.05295         0.001051     -0.000283     -0.008658
      4.04241      1.63044      9.05295        -0.001051      0.000283     -0.008658
      9.28237      2.04287      9.05295        -0.001051      0.000283     -0.008658
      4.45485      6.87040      9.05295        -0.001051      0.000283     -0.008658
      9.69481      7.28283      9.05295        -0.001051      0.000283     -0.008658
      1.40198      1.40377      6.44122        -0.000283      0.001051     -0.008658
      6.64194      1.81620      6.44122        -0.000283      0.001051     -0.008658
      1.81442      6.64373      6.44122        -0.000283      0.001051     -0.008658
      7.05438      7.05616      6.44122        -0.000283      0.001051     -0.008658
      4.25042      4.24863      6.44122         0.000283     -0.001051     -0.008658
      9.49038      4.66107      6.44122         0.000283     -0.001051     -0.008658
      4.66285      9.48859      6.44122         0.000283     -0.001051     -0.008658
      9.90281      9.90103      6.44122         0.000283     -0.001051     -0.008658
      4.02375      1.60820      3.82949         0.001051     -0.000283     -0.008658
      9.26371      2.02063      3.82949         0.001051     -0.000283     -0.008658
      4.43618      6.84816      3.82949         0.001051     -0.000283     -0.008658
      9.67614      7.26060      3.82949         0.001051     -0.000283     -0.008658
      1.62865      4.04420      3.82949        -0.001051      0.000283     -0.008658
      6.86861      4.45663      3.82949        -0.001051      0.000283     -0.008658
      2.04109      9.28416      3.82949        -0.001051      0.000283     -0.008658
      7.28105      9.69659      3.82949        -0.001051      0.000283     -0.008658
      0.00000      0.00000      5.30055        -0.000000     -0.000000      0.004595
      5.23996      0.41244      5.30055        -0.000000     -0.000000      0.004595
      0.41244      5.23996      5.30055        -0.000000     -0.000000      0.004595
      5.65240      5.65240      5.30055        -0.000000     -0.000000      0.004595
      2.61998      0.20622      2.68882        -0.000000     -0.000000      0.004595
      7.85994      0.61865      2.68882        -0.000000     -0.000000      0.004595
      3.03242      5.44618      2.68882        -0.000000     -0.000000      0.004595
      8.27238      5.85861      2.68882        -0.000000     -0.000000      0.004595
      2.82620      2.82620      0.07709        -0.000000     -0.000000      0.004595
      8.06616      3.23863      0.07709        -0.000000     -0.000000      0.004595
      3.23863      8.06616      0.07709        -0.000000     -0.000000      0.004595
      8.47859      8.47859      0.07709        -0.000000     -0.000000      0.004595
      0.20622      2.61998      7.91228        -0.000000     -0.000000      0.004595
      5.44618      3.03242      7.91228        -0.000000     -0.000000      0.004595
      0.61865      7.85994      7.91228        -0.000000     -0.000000      0.004595
      5.85861      8.27238      7.91228        -0.000000     -0.000000      0.004595
      0.00000      0.00000      0.09913        -0.000000     -0.000000      0.012720
      5.23996      0.41244      0.09913        -0.000000     -0.000000      0.012720
      0.41244      5.23996      0.09913        -0.000000     -0.000000      0.012720
      5.65240      5.65240      0.09913        -0.000000     -0.000000      0.012720
      2.61998      0.20622      7.93432        -0.000000     -0.000000      0.012720
      7.85994      0.61865      7.93432        -0.000000     -0.000000      0.012720
      3.03242      5.44618      7.93432        -0.000000     -0.000000      0.012720
      8.27238      5.85861      7.93432        -0.000000     -0.000000      0.012720
      2.82620      2.82620      5.32259        -0.000000     -0.000000      0.012720
      8.06616      3.23863      5.32259        -0.000000     -0.000000      0.012720
      3.23863      8.06616      5.32259        -0.000000     -0.000000      0.012720
      8.47859      8.47859      5.32259        -0.000000     -0.000000      0.012720
      0.20622      2.61998      2.71086        -0.000000     -0.000000      0.012720
      5.44618      3.03242      2.71086        -0.000000     -0.000000      0.012720
      0.61865      7.85994      2.71086        -0.000000     -0.000000      0.012720
      5.85861      8.27238      2.71086        -0.000000     -0.000000      0.012720
 -----------------------------------------------------------------------------------
    total drift:                               -0.000002     -0.000002     -0.033733


--------------------------------------------------------------------------------------------------------



  FREE ENERGIE OF THE ION-ELECTRON SYSTEM (eV)
  ---------------------------------------------------
  free  energy   TOTEN  =      -325.45213865 eV

  energy  without entropy=     -325.45213865  energy(sigma->0) =     -325.45213865
 


--------------------------------------------------------------------------------------------------------


    POTLOK:  cpu time    0.1298: real time    0.1304


--------------------------------------------------------------------------------------------------------


 writing wavefunctions
     LOOP+:  cpu time 2153.3205: real time 2416.0502
    4ORBIT:  cpu time    0.0000: real time    0.0000
 


 total charge     
 
# of ion       s       p       d       tot
------------------------------------------
    1        1.316   2.402   0.000   3.718
    2        1.316   2.402   0.000   3.718
    3        1.316   2.402   0.000   3.718
    4        1.316   2.402   0.000   3.718
    5        1.316   2.402   0.000   3.718
    6        1.316   2.402   0.000   3.718
    7        1.316   2.402   0.000   3.718
    8        1.316   2.402   0.000   3.718
    9        1.316   2.402   0.000   3.718
   10        1.316   2.402   0.000   3.718
   11        1.316   2.402   0.000   3.718
   12        1.316   2.402   0.000   3.718
   13        1.316   2.402   0.000   3.718
   14        1.316   2.402   0.000   3.718
   15        1.316   2.402   0.000   3.718
   16        1.316   2.402   0.000   3.718
   17        1.316   2.402   0.000   3.718
   18        1.316   2.402   0.000   3.718
   19        1.316   2.402   0.000   3.718
   20        1.316   2.402   0.000   3.718
   21        1.316   2.402   0.000   3.718
   22        1.316   2.402   0.000   3.718
   23        1.316   2.402   0.000   3.718
   24        1.316   2.402   0.000   3.718
   25        1.316   2.402   0.000   3.718
   26        1.316   2.402   0.000   3.718
   27        1.316   2.402   0.000   3.718
   28        1.316   2.402   0.000   3.718
   29        1.316   2.402   0.000   3.718
   30        1.316   2.402   0.000   3.718
   31        1.316   2.402   0.000   3.718
   32        1.316   2.402   0.000   3.718
   33        0.257   6.199   8.916  15.373
   34        0.257   6.199   8.916  15.373
   35        0.257   6.199   8.916  15.373
   36        0.257   6.199   8.916  15.373
   37        0.257   6.199   8.917  15.373
   38        0.257   6.199   8.917  15.373
   39        0.257   6.199   8.917  15.373
   40        0.257   6.199   8.917  15.373
   41        0.257   6.199   8.916  15.373
   42        0.257   6.199   8.916  15.373
   43        0.257   6.199   8.916  15.373
   44        0.257   6.199   8.916  15.373
   45        0.257   6.199   8.917  15.373
   46        0.257   6.199   8.917  15.373
   47        0.257   6.199   8.917  15.373
   48        0.257   6.199   8.917  15.373
   49        0.343   6.341   5.825  12.510
   50        0.343   6.341   5.825  12.510
   51        0.343   6.341   5.825  12.510
   52        0.343   6.341   5.825  12.510
   53        0.344   6.341   5.826  12.510
   54        0.344   6.341   5.826  12.510
   55        0.344   6.341   5.826  12.510
   56        0.344   6.341   5.826  12.510
   57        0.343   6.341   5.825  12.510
   58        0.343   6.341   5.825  12.510
   59        0.343   6.341   5.825  12.510
   60        0.343   6.341   5.825  12.510
   61        0.344   6.341   5.826  12.510
   62        0.344   6.341   5.826  12.510
   63        0.344   6.341   5.826  12.510
   64        0.344   6.341   5.826  12.510
--------------------------------------------------
tot         51.728 277.517 235.869 565.115
 


 magnetization (x)
 
# of ion       s       p       d       tot
------------------------------------------
    1       -0.002  -0.039   0.000  -0.041
    2       -0.002  -0.039   0.000  -0.041
    3       -0.002  -0.039   0.000  -0.041
    4       -0.002  -0.039   0.000  -0.041
    5       -0.002  -0.039   0.000  -0.041
    6       -0.002  -0.039   0.000  -0.041
    7       -0.002  -0.039   0.000  -0.041
    8       -0.002  -0.039   0.000  -0.041
    9        0.002   0.039   0.000   0.041
   10        0.002   0.039   0.000   0.041
   11        0.002   0.039   0.000   0.041
   12        0.002   0.039   0.000   0.041
   13        0.002   0.039   0.000   0.041
   14        0.002   0.039   0.000   0.041
   15        0.002   0.039   0.000   0.041
   16        0.002   0.039   0.000   0.041
   17       -0.002  -0.039   0.000  -0.041
   18       -0.002  -0.039   0.000  -0.041
   19       -0.002  -0.039   0.000  -0.041
   20       -0.002  -0.039   0.000  -0.041
   21       -0.002  -0.039   0.000  -0.041
   22       -0.002  -0.039   0.000  -0.041
   23       -0.002  -0.039   0.000  -0.041
   24       -0.002  -0.039   0.000  -0.041
   25        0.002   0.039   0.000   0.041
   26        0.002   0.039   0.000   0.041
   27        0.002   0.039   0.000   0.041
   28        0.002   0.039   0.000   0.041
   29        0.002   0.039   0.000   0.041
   30        0.002   0.039   0.000   0.041
   31        0.002   0.039   0.000   0.041
   32        0.002   0.039   0.000   0.041
   33       -0.000  -0.001   0.008   0.006
   34       -0.000  -0.001   0.008   0.006
   35       -0.000  -0.001   0.008   0.006
   36       -0.000  -0.001   0.008   0.006
   37        0.000   0.001  -0.009  -0.007
   38        0.000   0.001  -0.009  -0.007
   39        0.000   0.001  -0.009  -0.007
   40        0.000   0.001  -0.009  -0.007
   41       -0.000  -0.001   0.008   0.006
   42       -0.000  -0.001   0.008   0.006
   43       -0.000  -0.001   0.008   0.006
   44       -0.000  -0.001   0.008   0.006
   45        0.000   0.001  -0.009  -0.007
   46        0.000   0.001  -0.009  -0.007
   47        0.000   0.001  -0.009  -0.007
   48        0.000   0.001  -0.009  -0.007
   49        0.020   0.052   3.664   3.736
   50        0.020   0.052   3.664   3.736
   51        0.020   0.052   3.664   3.736
   52        0.020   0.052   3.664   3.736
   53       -0.020  -0.052  -3.664  -3.736
   54       -0.020  -0.052  -3.664  -3.736
   55       -0.020  -0.052  -3.664  -3.736
   56       -0.020  -0.052  -3.664  -3.736
   57        0.020   0.052   3.664   3.736
   58        0.020   0.052   3.664   3.736
   59        0.020   0.052   3.664   3.736
   60        0.020   0.052   3.664   3.736
   61       -0.020  -0.052  -3.664  -3.736
   62       -0.020  -0.052  -3.664  -3.736
   63       -0.020  -0.052  -3.664  -3.736
   64       -0.020  -0.052  -3.664  -3.736
--------------------------------------------------
tot         -0.003   0.002  -0.003  -0.003
 
 BZINTS: Fermi energy:  5.228031;688.000000 electrons
         Band energy:***********;  BLOECHL correction:  0.000000

 total amount of memory used by VASP MPI-rank0   299201. kBytes
=======================================================================

   base      :      30000. kBytes
   nonl-proj :     174030. kBytes
   fftplans  :       4588. kBytes
   grid      :      69719. kBytes
   one-center:       1990. kBytes
   wavefun   :      18874. kBytes
 
  
  
 General timing and accounting informations for this job:
 ========================================================
  
                  Total CPU time used (sec):     2203.036
                            User time (sec):     2191.315
                          System time (sec):       11.721
                         Elapsed time (sec):     2467.121
  
                   Maximum memory used (kb):      656764.
                   Average memory used (kb):           0.
  
                          Minor page faults:       536891
                          Major page faults:         5591
                 Voluntary context switches:         7640
