 vasp.5.4.4.18Apr17-6-g9f103f2a35 (build Oct 30 2023 17:30:16) complex          
  
 executed on             LinuxIFC date 2024.04.02  20:06:54
 running on  256 total cores
 distrk:  each k-point on  256 cores,    1 groups
 distr:  one band on NCORES_PER_BAND=   1 cores,  256 groups


--------------------------------------------------------------------------------------------------------


 INCAR:
 POTCAR:    PAW_PBE S 06Sep2000                   
 POTCAR:     PAW_PBE Cu_pv 06Sep2000              
 POTCAR:     PAW_PBE Fe_pv 02Aug2007              

 ----------------------------------------------------------------------------- 
|                                                                             |
|           W    W    AA    RRRRR   N    N  II  N    N   GGGG   !!!           |
|           W    W   A  A   R    R  NN   N  II  NN   N  G    G  !!!           |
|           W    W  A    A  R    R  N N  N  II  N N  N  G       !!!           |
|           W WW W  AAAAAA  RRRRR   N  N N  II  N  N N  G  GGG   !            |
|           WW  WW  A    A  R   R   N   NN  II  N   NN  G    G                |
|           W    W  A    A  R    R  N    N  II  N    N   GGGG   !!!           |
|                                                                             |
|      For optimal performance we recommend to set                            |
|        NCORE= 4 - approx SQRT( number of cores)                             |
|      NCORE specifies how many cores store one orbital (NPAR=cpu/NCORE).     |
|      This setting can  greatly improve the performance of VASP for DFT.     |
|      The default,   NCORE=1            might be grossly inefficient         |
|      on modern multi-core architectures or massively parallel machines.     |
|      Do your own testing !!!!                                               |
|      Unfortunately you need to use the default for GW and RPA calculations. |
|      (for HF NCORE is supported but not extensively tested yet)             |
|                                                                             |
 ----------------------------------------------------------------------------- 

 POTCAR:    PAW_PBE S 06Sep2000                   
   SHA256 =  0fc7481fb0695f01bdc6462160264c5c84044ae9ec85a907d398b887a2bc3132 S/
   COPYR  = (c) Copyright 06Sep2000 Georg Kresse                                
   COPYR  = This file is part of the software VASP. Any use, copying, and all ot
   COPYR  = If you do not have a valid VASP license, you may not use, copy or di
   VRHFIN =S : s2p4                                                             
   LEXCH  = PE                                                                  
   EATOM  =   276.8230 eV,   20.3459 Ry                                         
                                                                                
   TITEL  = PAW_PBE S 06Sep2000                                                 
   LULTRA =        F    use ultrasoft PP ?                                      
   IUNSCR =        1    unscreen: 0-lin 1-nonlin 2-no                           
   RPACOR =    1.500    partial core radius                                     
   POMASS =   32.066; ZVAL   =    6.000    mass and valenz                      
   RCORE  =    1.900    outmost cutoff radius                                   
   RWIGS  =    2.200; RWIGS  =    1.164    wigner-seitz radius (au A)           
   ENMAX  =  258.689; ENMIN  =  194.016 eV                                      
   ICORE  =        2    local potential                                         
   LCOR   =        T    correct aug charges                                     
   LPAW   =        T    paw PP                                                  
   EAUG   =  335.092                                                            
   DEXC   =    0.000                                                            
   RMAX   =    1.942    core radius for proj-oper                               
   RAUG   =    1.300    factor for augmentation sphere                          
   RDEP   =    1.954    radius for radial grids                                 
   RDEPT  =    1.744    core radius for aug-charge                              
                                                                                
   Atomic configuration                                                         
    6 entries                                                                   
     n  l   j            E        occ.                                          
     1  0  0.50     -2405.8406   2.0000                                         
     2  0  0.50      -211.7007   2.0000                                         
     2  1  1.50      -156.4958   6.0000                                         
     3  0  0.50       -17.2562   2.0000                                         
     3  1  0.50        -7.0085   4.0000                                         
     3  2  1.50        -6.8029   0.0000                                         
   Description                                                                  
     l       E           TYP  RCUT    TYP  RCUT                                 
     0    -17.2561641     23  1.900                                             
     0    -15.8743224     23  1.900                                             
     1     -7.0085400     23  1.900                                             
     1     -2.7779785     23  1.900                                             
     2     -6.8029130     23  1.900                                             
  local pseudopotential read in
  partial core-charges read in
  partial kinetic energy density read in
  atomic valenz-charges read in
  non local Contribution for L=           0  read in
    real space projection operators read in
  non local Contribution for L=           0  read in
    real space projection operators read in
  non local Contribution for L=           1  read in
    real space projection operators read in
  non local Contribution for L=           1  read in
    real space projection operators read in
    PAW grid and wavefunctions read in
 
   number of l-projection  operators is LMAX  =           4
   number of lm-projection operators is LMMAX =           8
 
 POTCAR:     PAW_PBE Cu_pv 06Sep2000              
   SHA256 =  cb7b504e2ea725fe1f25c85a9ac77d4012ce94cd394135b722c4e25ec297f1cb Cu
   COPYR  = (c) Copyright 06Sep2000 Georg Kresse                                
   COPYR  = This file is part of the software VASP. Any use, copying, and all ot
   COPYR  = If you do not have a valid VASP license, you may not use, copy or di
   VRHFIN =Cu: d10 p1                                                           
   LEXCH  = PE                                                                  
   EATOM  =  4120.1201 eV,  302.8203 Ry                                         
                                                                                
   TITEL  = PAW_PBE Cu_pv 06Sep2000                                             
   LULTRA =        F    use ultrasoft PP ?                                      
   IUNSCR =        1    unscreen: 0-lin 1-nonlin 2-no                           
   RPACOR =    1.500    partial core radius                                     
   POMASS =   63.546; ZVAL   =   17.000    mass and valenz                      
   RCORE  =    2.000    outmost cutoff radius                                   
   RWIGS  =    2.000; RWIGS  =    1.058    wigner-seitz radius (au A)           
   ENMAX  =  368.648; ENMIN  =  276.486 eV                                      
   RCLOC  =    1.304    cutoff for local pot                                    
   LCOR   =        T    correct aug charges                                     
   LPAW   =        T    paw PP                                                  
   EAUG   =  758.233                                                            
   DEXC   =    0.000                                                            
   RMAX   =    2.046    core radius for proj-oper                               
   RAUG   =    1.300    factor for augmentation sphere                          
   RDEP   =    2.025    radius for radial grids                                 
   RDEPT  =    1.558    core radius for aug-charge                              
                                                                                
   Atomic configuration                                                         
    8 entries                                                                   
     n  l   j            E        occ.                                          
     1  0  0.50     -8850.2467   2.0000                                         
     2  0  0.50     -1062.3498   2.0000                                         
     2  1  1.50      -916.8226   6.0000                                         
     3  0  0.50      -114.6929   2.0000                                         
     3  1  1.50       -72.1325   6.0000                                         
     3  2  2.50        -5.0394  10.0000                                         
     4  0  0.50        -4.6097   1.0000                                         
     4  3  2.50        -1.3606   0.0000                                         
   Description                                                                  
     l       E           TYP  RCUT    TYP  RCUT                                 
     1    -72.1324777     23  1.700                                             
     1     -1.3605826     23  1.700                                             
     2     -5.0393776     23  2.000                                             
     2     -6.3999602     23  2.000                                             
     0     -4.6097062     23  1.800                                             
     0     14.1620818     23  1.800                                             
  local pseudopotential read in
  partial core-charges read in
  partial kinetic energy density read in
  atomic valenz-charges read in
  non local Contribution for L=           1  read in
    real space projection operators read in
  non local Contribution for L=           1  read in
    real space projection operators read in
  non local Contribution for L=           2  read in
    real space projection operators read in
  non local Contribution for L=           2  read in
    real space projection operators read in
  non local Contribution for L=           0  read in
    real space projection operators read in
  non local Contribution for L=           0  read in
    real space projection operators read in
    PAW grid and wavefunctions read in
 
   number of l-projection  operators is LMAX  =           6
   number of lm-projection operators is LMMAX =          18
 
 POTCAR:     PAW_PBE Fe_pv 02Aug2007              
   SHA256 =  5d22e414b1f82158bf2c7ecb8b97b28fd0923e48cadc1c3bf74d524558f5dd32 Fe
   COPYR  = (c) Copyright 02Aug2007 Georg Kresse                                
   COPYR  = This file is part of the software VASP. Any use, copying, and all ot
   COPYR  = If you do not have a valid VASP license, you may not use, copy or di
   VRHFIN =Fe:  3pd7s1                                                          
   LEXCH  = PE                                                                  
   EATOM  =  2457.4239 eV,  180.6156 Ry                                         
                                                                                
   TITEL  = PAW_PBE Fe_pv 02Aug2007                                             
   LULTRA =        F    use ultrasoft PP ?                                      
   IUNSCR =        1    unscreen: 0-lin 1-nonlin 2-no                           
   RPACOR =    1.750    partial core radius                                     
   POMASS =   55.847; ZVAL   =   14.000    mass and valenz                      
   RCORE  =    2.200    outmost cutoff radius                                   
   RWIGS  =    2.200; RWIGS  =    1.164    wigner-seitz radius (au A)           
   ENMAX  =  293.238; ENMIN  =  219.928 eV                                      
   ICORE  =        3    local potential                                         
   LCOR   =        T    correct aug charges                                     
   LPAW   =        T    paw PP                                                  
   EAUG   =  578.342                                                            
   DEXC   =    0.000                                                            
   RMAX   =    2.249    core radius for proj-oper                               
   RAUG   =    1.300    factor for augmentation sphere                          
   RDEP   =    2.296    radius for radial grids                                 
   RDEPT  =    1.766    core radius for aug-charge                              
                                                                                
   Atomic configuration                                                         
    8 entries                                                                   
     n  l   j            E        occ.                                          
     1  0  0.50     -6993.8440   2.0000                                         
     2  0  0.50      -814.6047   2.0000                                         
     2  1  1.50      -693.3689   6.0000                                         
     3  0  0.50       -89.4732   2.0000                                         
     3  1  1.50       -55.6373   6.0000                                         
     3  2  2.50        -3.8151   7.0000                                         
     4  0  0.50        -4.2551   1.0000                                         
     4  3  2.50        -1.3606   0.0000                                         
   Description                                                                  
     l       E           TYP  RCUT    TYP  RCUT                                 
     1    -55.6372668     23  2.000                                             
     1     -5.4423304     23  2.000                                             
     2     -3.8151096     23  2.200                                             
     2     -5.1756922     23  2.200                                             
     0     -4.2550951     23  2.200                                             
     0     27.2116520     23  2.200                                             
     3     -1.3605826     23  2.200                                             
  local pseudopotential read in
  partial core-charges read in
  partial kinetic energy density read in
  atomic valenz-charges read in
  non local Contribution for L=           1  read in
    real space projection operators read in
  non local Contribution for L=           1  read in
    real space projection operators read in
  non local Contribution for L=           2  read in
    real space projection operators read in
  non local Contribution for L=           2  read in
    real space projection operators read in
  non local Contribution for L=           0  read in
    real space projection operators read in
  non local Contribution for L=           0  read in
    real space projection operators read in
    PAW grid and wavefunctions read in
 
   number of l-projection  operators is LMAX  =           6
   number of lm-projection operators is LMMAX =          18
 

 ----------------------------------------------------------------------------- 
|                                                                             |
|  ADVICE TO THIS USER RUNNING 'VASP/VAMP'   (HEAR YOUR MASTER'S VOICE ...):  |
|                                                                             |
|      You have a (more or less) 'large supercell' and for larger cells       |
|      it might be more efficient to use real space projection opertators     |
|      So try LREAL= Auto  in the INCAR   file.                               |
|      Mind:          For very  accurate calculation you might also keep the  |
|      reciprocal projection scheme          (i.e. LREAL=.FALSE.)             |
|                                                                             |
 ----------------------------------------------------------------------------- 


 ----------------------------------------------------------------------------- 
|                                                                             |
|  ADVICE TO THIS USER RUNNING 'VASP/VAMP'   (HEAR YOUR MASTER'S VOICE ...):  |
|                                                                             |
|      You enforced a specific xc-type in the INCAR file,                     |
|      a different type was found on the POTCAR file                          |
|          I HOPE YOU KNOW, WHAT YOU ARE  DOING                               |
|                                                                             |
 ----------------------------------------------------------------------------- 

  PAW_PBE S 06Sep2000                   :
 energy of atom  1       EATOM= -276.8230
 kinetic energy error for atom=    0.0007 (will be added to EATOM!!)
   PAW_PBE Cu_pv 06Sep2000              :
 energy of atom  2       EATOM=-4120.1201
 kinetic energy error for atom=    0.0094 (will be added to EATOM!!)
   PAW_PBE Fe_pv 02Aug2007              :
 energy of atom  3       EATOM=-2457.4239
 kinetic energy error for atom=    0.0025 (will be added to EATOM!!)
 
 
 POSCAR: Fe16 Cu16 S32                           
  positions in direct lattice
  No initial velocities read in
 exchange correlation table for  LEXCH =       14
   RHO(1)=    0.500       N(1)  =     2000
   RHO(2)=  100.500       N(2)  =     4000
 


--------------------------------------------------------------------------------------------------------


 ion  position               nearest neighbor table
   1  0.126  0.125  0.125-  41 2.26  37 2.26  61 2.28  49 2.28
   2  0.626  0.125  0.125-  42 2.26  38 2.26  62 2.28  50 2.28
   3  0.126  0.625  0.125-  43 2.26  39 2.26  63 2.28  51 2.28
   4  0.626  0.625  0.125-  44 2.26  40 2.26  64 2.28  52 2.28
   5  0.374  0.375  0.125-  39 2.26  41 2.26  52 2.28  62 2.28
   6  0.874  0.375  0.125-  40 2.26  42 2.26  51 2.28  61 2.28
   7  0.374  0.875  0.125-  37 2.26  43 2.26  50 2.28  64 2.28
   8  0.874  0.875  0.125-  38 2.26  44 2.26  49 2.28  63 2.28
   9  0.125  0.374  0.875-  41 2.26  45 2.26  51 2.28  55 2.28
  10  0.625  0.374  0.875-  42 2.26  46 2.26  52 2.28  56 2.28
  11  0.125  0.874  0.875-  43 2.26  47 2.26  49 2.28  53 2.28
  12  0.625  0.874  0.875-  44 2.26  48 2.26  50 2.28  54 2.28
  13  0.375  0.126  0.875-  41 2.26  46 2.26  50 2.28  53 2.28
  14  0.875  0.126  0.875-  42 2.26  45 2.26  49 2.28  54 2.28
  15  0.375  0.626  0.875-  43 2.26  48 2.26  52 2.28  55 2.28
  16  0.875  0.626  0.875-  44 2.26  47 2.26  51 2.28  56 2.28
  17  0.124  0.125  0.625-  45 2.26  33 2.26  57 2.28  53 2.28
  18  0.624  0.125  0.625-  46 2.26  34 2.26  58 2.28  54 2.28
  19  0.124  0.625  0.625-  47 2.26  35 2.26  59 2.28  55 2.28
  20  0.624  0.625  0.625-  48 2.26  36 2.26  60 2.28  56 2.28
  21  0.376  0.375  0.625-  36 2.26  46 2.26  55 2.28  57 2.28
  22  0.876  0.375  0.625-  35 2.26  45 2.26  56 2.28  58 2.28
  23  0.376  0.875  0.625-  34 2.26  48 2.26  53 2.28  59 2.28
  24  0.876  0.875  0.625-  33 2.26  47 2.26  54 2.28  60 2.28
  25  0.375  0.124  0.375-  34 2.26  37 2.26  57 2.28  62 2.28
  26  0.875  0.124  0.375-  33 2.26  38 2.26  58 2.28  61 2.28
  27  0.375  0.624  0.375-  36 2.26  39 2.26  59 2.28  64 2.28
  28  0.875  0.624  0.375-  35 2.26  40 2.26  60 2.28  63 2.28
  29  0.125  0.376  0.375-  35 2.26  39 2.26  57 2.28  61 2.28
  30  0.625  0.376  0.375-  36 2.26  40 2.26  58 2.28  62 2.28
  31  0.125  0.876  0.375-  33 2.26  37 2.26  59 2.28  63 2.28
  32  0.625  0.876  0.375-  34 2.26  38 2.26  60 2.28  64 2.28
  33  1.000  0.000  0.500-  24 2.26  31 2.26  26 2.26  17 2.26
  34  0.500  0.000  0.500-  23 2.26  32 2.26  25 2.26  18 2.26
  35  1.000  0.500  0.500-  22 2.26  29 2.26  28 2.26  19 2.26
  36  0.500  0.500  0.500-  21 2.26  30 2.26  27 2.26  20 2.26
  37  0.250  0.000  0.250-   7 2.26  31 2.26  25 2.26   1 2.26
  38  0.750  0.000  0.250-   8 2.26  32 2.26  26 2.26   2 2.26
  39  0.250  0.500  0.250-   5 2.26  29 2.26  27 2.26   3 2.26
  40  0.750  0.500  0.250-   6 2.26  30 2.26  28 2.26   4 2.26
  41  0.250  0.250  1.000-   1 2.26  13 2.26   9 2.26   5 2.26
  42  0.750  0.250  1.000-   2 2.26  14 2.26  10 2.26   6 2.26
  43  0.250  0.750  1.000-   3 2.26  15 2.26  11 2.26   7 2.26
  44  0.750  0.750  1.000-   4 2.26  16 2.26  12 2.26   8 2.26
  45  0.000  0.250  0.750-  17 2.26  14 2.26   9 2.26  22 2.26
  46  0.500  0.250  0.750-  18 2.26  13 2.26  10 2.26  21 2.26
  47  0.000  0.750  0.750-  19 2.26  16 2.26  11 2.26  24 2.26
  48  0.500  0.750  0.750-  20 2.26  15 2.26  12 2.26  23 2.26
  49  1.000  0.000  0.000-   8 2.28  11 2.28  14 2.28   1 2.28
  50  0.500  0.000  0.000-   7 2.28  12 2.28  13 2.28   2 2.28
  51  1.000  0.500  0.000-   6 2.28   9 2.28  16 2.28   3 2.28
  52  0.500  0.500  0.000-   5 2.28  10 2.28  15 2.28   4 2.28
  53  0.250  0.000  0.750-  23 2.28  11 2.28  13 2.28  17 2.28
  54  0.750  0.000  0.750-  24 2.28  12 2.28  14 2.28  18 2.28
  55  0.250  0.500  0.750-  21 2.28   9 2.28  15 2.28  19 2.28
  56  0.750  0.500  0.750-  22 2.28  10 2.28  16 2.28  20 2.28
  57  0.250  0.250  0.500-  17 2.28  25 2.28  29 2.28  21 2.28
  58  0.750  0.250  0.500-  18 2.28  26 2.28  30 2.28  22 2.28
  59  0.250  0.750  0.500-  19 2.28  27 2.28  31 2.28  23 2.28
  60  0.750  0.750  0.500-  20 2.28  28 2.28  32 2.28  24 2.28
  61  0.000  0.250  0.250-   1 2.28  26 2.28  29 2.28   6 2.28
  62  0.500  0.250  0.250-   2 2.28  25 2.28  30 2.28   5 2.28
  63  0.000  0.750  0.250-   3 2.28  28 2.28  31 2.28   8 2.28
  64  0.500  0.750  0.250-   4 2.28  27 2.28  32 2.28   7 2.28
 
  LATTYP: Found a simple monoclinic cell.
 ALAT       =    14.8362293469
 B/A-ratio  =     0.7088067833
 C/A-ratio  =     1.5755667356
 COS(beta)  =    -0.9488680314
  
  Lattice vectors:
  
 A1 = ( -10.5430700000,   0.0000000000, -10.4382650000)
 A2 = (   0.0000000000, -10.5160200000,   0.0000000000)
 A3 = (  10.5703250000,   0.0000000000,  20.8490000000)


Analysis of symmetry for initial positions (statically):
=====================================================================
 Subroutine PRICEL returns following result:
 
  LATTYP: Found a base centered monoclinic cell.
 ALAT       =    11.6385871461
 B/A-ratio  =     0.4517739081
 C/A-ratio  =     0.8945046805
 COS(beta)  =    -0.8130203989
  
  Lattice vectors:
  
 A1 = (  -2.6153262500,  -2.6290050000,   5.1984850000)
 A2 = (  -2.6153262500,   2.6290050000,   5.1984850000)
 A3 = (  -0.0272550000,   0.0000000000, -10.4107350000)
 
   8 primitive cells build up your supercell.
 

 Routine SETGRP: Setting up the symmetry group for a 
 simple monoclinic supercell.


 Subroutine GETGRP returns: Found  2 space group operations
 (whereof  1 operations were pure point group operations)
 out of a pool of  4 trial point group operations.


The static configuration has the point symmetry C_1 .
 The point group associated with its full space group is C_2 .


Analysis of symmetry for dynamics (positions and initial velocities):
=====================================================================
 Subroutine PRICEL returns following result:
 
  LATTYP: Found a base centered monoclinic cell.
 ALAT       =    11.6385871461
 B/A-ratio  =     0.4517739081
 C/A-ratio  =     0.8945046805
 COS(beta)  =    -0.8130203989
  
  Lattice vectors:
  
 A1 = (  -2.6153262500,  -2.6290050000,   5.1984850000)
 A2 = (  -2.6153262500,   2.6290050000,   5.1984850000)
 A3 = (  -0.0272550000,   0.0000000000, -10.4107350000)
 
   8 primitive cells build up your supercell.
 

 Routine SETGRP: Setting up the symmetry group for a 
 simple monoclinic supercell.


 Subroutine GETGRP returns: Found  2 space group operations
 (whereof  1 operations were pure point group operations)
 out of a pool of  4 trial point group operations.


The dynamic configuration has the point symmetry C_1 .
 The point group associated with its full space group is C_2 .


Analysis of structural, dynamic, and magnetic symmetry:
=====================================================================
 Subroutine PRICEL returns following result:
 
  LATTYP: Found a base centered monoclinic cell.
 ALAT       =    11.6385871461
 B/A-ratio  =     0.4517739081
 C/A-ratio  =     0.8945046805
 COS(beta)  =    -0.8130203989
  
  Lattice vectors:
  
 A1 = (  -2.6153262500,  -2.6290050000,   5.1984850000)
 A2 = (  -2.6153262500,   2.6290050000,   5.1984850000)
 A3 = (  -0.0272550000,   0.0000000000, -10.4107350000)
 
   8 primitive cells build up your supercell.
 

 Routine SETGRP: Setting up the symmetry group for a 
 simple monoclinic supercell.


 Subroutine GETGRP returns: Found  2 space group operations
 (whereof  1 operations were pure point group operations)
 out of a pool of  4 trial point group operations.


The magnetic configuration has the point symmetry C_1 .
 The point group associated with its full space group is C_2 .


 Subroutine INISYM returns: Found  2 space group operations
 (whereof  1 operations are pure point group operations),
 and found     8 'primitive' translations

 
 
 KPOINTS: Automatic mesh                          

Automatic generation of k-mesh.
Space group operators:
 irot       det(A)        alpha          n_x          n_y          n_z        tau_x        tau_y        tau_z
    1     1.000000     0.000001     1.000000     0.000000     0.000000     0.000000     0.000000     0.000000
    2     1.000000   180.000000     0.000000     1.000000     0.000000    -0.250000     0.000000    -0.250000
 
 Subroutine IBZKPT returns following result:
 ===========================================
 
 Found     30 irreducible k-points:
 
 Following reciprocal coordinates:
            Coordinates               Weight
  0.000000  0.000000  0.000000      1.000000
  0.250000  0.000000 -0.000000      2.000000
  0.500000  0.000000 -0.000000      1.000000
  0.000000  0.250000  0.000000      2.000000
  0.250000  0.250000 -0.000000      4.000000
  0.500000  0.250000 -0.000000      2.000000
  0.000000  0.500000  0.000000      1.000000
  0.250000  0.500000 -0.000000      2.000000
  0.500000  0.500000 -0.000000      1.000000
 -0.000000  0.000000  0.250000      2.000000
  0.250000  0.000000  0.250000      2.000000
  0.500000  0.000000  0.250000      2.000000
 -0.250000  0.000000  0.250000      2.000000
 -0.000000  0.250000  0.250000      4.000000
  0.250000  0.250000  0.250000      4.000000
  0.500000  0.250000  0.250000      4.000000
 -0.250000  0.250000  0.250000      4.000000
 -0.000000  0.500000  0.250000      2.000000
  0.250000  0.500000  0.250000      2.000000
  0.500000  0.500000  0.250000      2.000000
 -0.250000  0.500000  0.250000      2.000000
 -0.000000  0.000000  0.500000      1.000000
  0.250000  0.000000  0.500000      2.000000
  0.500000  0.000000  0.500000      1.000000
 -0.000000  0.250000  0.500000      2.000000
  0.250000  0.250000  0.500000      4.000000
  0.500000  0.250000  0.500000      2.000000
 -0.000000  0.500000  0.500000      1.000000
  0.250000  0.500000  0.500000      2.000000
  0.500000  0.500000  0.500000      1.000000
 
 Following cartesian coordinates:
            Coordinates               Weight
  0.000000  0.000000  0.000000      1.000000
  0.023774  0.000000 -0.000062      2.000000
  0.047548  0.000000 -0.000124      1.000000
  0.000000  0.023773  0.000000      2.000000
  0.023774  0.023773 -0.000062      4.000000
  0.047548  0.023773 -0.000124      2.000000
  0.000000  0.047547  0.000000      1.000000
  0.023774  0.047547 -0.000062      2.000000
  0.047548  0.047547 -0.000124      1.000000
 -0.000063  0.000000  0.024014      2.000000
  0.023711  0.000000  0.023952      2.000000
  0.047485  0.000000  0.023889      2.000000
 -0.023837  0.000000  0.024076      2.000000
 -0.000063  0.023773  0.024014      4.000000
  0.023711  0.023773  0.023952      4.000000
  0.047485  0.023773  0.023889      4.000000
 -0.023837  0.023773  0.024076      4.000000
 -0.000063  0.047547  0.024014      2.000000
  0.023711  0.047547  0.023952      2.000000
  0.047485  0.047547  0.023889      2.000000
 -0.023837  0.047547  0.024076      2.000000
 -0.000126  0.000000  0.048028      1.000000
  0.023648  0.000000  0.047965      2.000000
  0.047422  0.000000  0.047903      1.000000
 -0.000126  0.023773  0.048028      2.000000
  0.023648  0.023773  0.047965      4.000000
  0.047422  0.023773  0.047903      2.000000
 -0.000126  0.047547  0.048028      1.000000
  0.023648  0.047547  0.047965      2.000000
  0.047422  0.047547  0.047903      1.000000
 
 TETIRR: Found    192 inequivalent tetrahedra from      384
 
 Subroutine IBZKPT_HF returns following result:
 ==============================================
 
 Found     64 k-points in 1st BZ
 the following     64 k-points will be used (e.g. in the exchange kernel)
 Following reciprocal coordinates:   # in IRBZ
  0.000000  0.000000  0.000000    0.01562500   1 t-inv F
  0.250000  0.000000 -0.000000    0.01562500   2 t-inv F
  0.500000  0.000000 -0.000000    0.01562500   3 t-inv F
  0.000000  0.250000  0.000000    0.01562500   4 t-inv F
  0.250000  0.250000 -0.000000    0.01562500   5 t-inv F
  0.500000  0.250000 -0.000000    0.01562500   6 t-inv F
  0.000000  0.500000  0.000000    0.01562500   7 t-inv F
  0.250000  0.500000 -0.000000    0.01562500   8 t-inv F
  0.500000  0.500000 -0.000000    0.01562500   9 t-inv F
 -0.000000  0.000000  0.250000    0.01562500  10 t-inv F
  0.250000  0.000000  0.250000    0.01562500  11 t-inv F
  0.500000  0.000000  0.250000    0.01562500  12 t-inv F
 -0.250000  0.000000  0.250000    0.01562500  13 t-inv F
 -0.000000  0.250000  0.250000    0.01562500  14 t-inv F
  0.250000  0.250000  0.250000    0.01562500  15 t-inv F
  0.500000  0.250000  0.250000    0.01562500  16 t-inv F
 -0.250000  0.250000  0.250000    0.01562500  17 t-inv F
 -0.000000  0.500000  0.250000    0.01562500  18 t-inv F
  0.250000  0.500000  0.250000    0.01562500  19 t-inv F
  0.500000  0.500000  0.250000    0.01562500  20 t-inv F
 -0.250000  0.500000  0.250000    0.01562500  21 t-inv F
 -0.000000  0.000000  0.500000    0.01562500  22 t-inv F
  0.250000  0.000000  0.500000    0.01562500  23 t-inv F
  0.500000  0.000000  0.500000    0.01562500  24 t-inv F
 -0.000000  0.250000  0.500000    0.01562500  25 t-inv F
  0.250000  0.250000  0.500000    0.01562500  26 t-inv F
  0.500000  0.250000  0.500000    0.01562500  27 t-inv F
 -0.000000  0.500000  0.500000    0.01562500  28 t-inv F
  0.250000  0.500000  0.500000    0.01562500  29 t-inv F
  0.500000  0.500000  0.500000    0.01562500  30 t-inv F
 -0.250000  0.000000  0.000000    0.01562500   2 t-inv F spinflp
 -0.250000  0.250000  0.000000    0.01562500   5 t-inv F spinflp
 -0.250000  0.500000  0.000000    0.01562500   8 t-inv F spinflp
  0.000000  0.000000 -0.250000    0.01562500  10 t-inv F spinflp
 -0.250000  0.000000 -0.250000    0.01562500  11 t-inv F spinflp
 -0.500000  0.000000 -0.250000    0.01562500  12 t-inv F spinflp
  0.250000  0.000000 -0.250000    0.01562500  13 t-inv F spinflp
  0.000000  0.250000 -0.250000    0.01562500  14 t-inv F spinflp
 -0.250000  0.250000 -0.250000    0.01562500  15 t-inv F spinflp
 -0.500000  0.250000 -0.250000    0.01562500  16 t-inv F spinflp
  0.250000  0.250000 -0.250000    0.01562500  17 t-inv F spinflp
  0.000000  0.500000 -0.250000    0.01562500  18 t-inv F spinflp
 -0.250000  0.500000 -0.250000    0.01562500  19 t-inv F spinflp
 -0.500000  0.500000 -0.250000    0.01562500  20 t-inv F spinflp
  0.250000  0.500000 -0.250000    0.01562500  21 t-inv F spinflp
 -0.250000  0.000000 -0.500000    0.01562500  23 t-inv F spinflp
 -0.250000  0.250000 -0.500000    0.01562500  26 t-inv F spinflp
 -0.250000  0.500000 -0.500000    0.01562500  29 t-inv F spinflp
  0.000000 -0.250000  0.000000    0.01562500   4 t-inv T
 -0.250000 -0.250000  0.000000    0.01562500   5 t-inv T
  0.250000 -0.250000 -0.000000    0.01562500   5 t-inv T spinflp
 -0.500000 -0.250000  0.000000    0.01562500   6 t-inv T
  0.000000 -0.250000 -0.250000    0.01562500  14 t-inv T
 -0.000000 -0.250000  0.250000    0.01562500  14 t-inv T spinflp
 -0.250000 -0.250000 -0.250000    0.01562500  15 t-inv T
  0.250000 -0.250000  0.250000    0.01562500  15 t-inv T spinflp
 -0.500000 -0.250000 -0.250000    0.01562500  16 t-inv T
  0.500000 -0.250000  0.250000    0.01562500  16 t-inv T spinflp
  0.250000 -0.250000 -0.250000    0.01562500  17 t-inv T
 -0.250000 -0.250000  0.250000    0.01562500  17 t-inv T spinflp
  0.000000 -0.250000 -0.500000    0.01562500  25 t-inv T
 -0.250000 -0.250000 -0.500000    0.01562500  26 t-inv T
  0.250000 -0.250000  0.500000    0.01562500  26 t-inv T spinflp
 -0.500000 -0.250000 -0.500000    0.01562500  27 t-inv T


--------------------------------------------------------------------------------------------------------




 Dimension of arrays:
   k-points           NKPTS =     30   k-points in BZ     NKDIM =     30   number of bands    NBANDS=    512
   number of dos      NEDOS =    301   number of ions     NIONS =     64
   non local maximal  LDIM  =      6   non local SUM 2l+1 LMDIM =     18
   total plane-waves  NPLWV = 829440
   max r-space proj   IRMAX =      1   max aug-charges    IRDMAX=  22895
   dimension x,y,z NGX =    96 NGY =   96 NGZ =   90
   dimension x,y,z NGXF=   192 NGYF=  192 NGZF=  180
   support grid    NGXF=   192 NGYF=  192 NGZF=  180
   ions per type =              32  16  16
   NGX,Y,Z   is equivalent  to a cutoff of  15.18, 15.18, 14.37 a.u.
   NGXF,Y,Z  is equivalent  to a cutoff of  30.35, 30.35, 28.74 a.u.

 SYSTEM =  CuFeS2                                  
 POSCAR =  Fe16 Cu16 S32                           

 Startparameter for this run:
   NWRITE =      2    write-flag & timer
   PREC   = accura    normal or accurate (medium, high low for compatibility)
   ISTART =      0    job   : 0-new  1-cont  2-samecut
   ICHARG =      1    charge: 1-file 2-atom 10-const
   ISPIN  =      2    spin polarized calculation?
   LNONCOLLINEAR =      F non collinear calculations
   LSORBIT =      F    spin-orbit coupling
   INIWAV =      1    electr: 0-lowe 1-rand  2-diag
   LASPH  =      F    aspherical Exc in radial PAW
   METAGGA=      F    non-selfconsistent MetaGGA calc.

 Electronic Relaxation 1
   ENCUT  =  700.0 eV  51.45 Ry    7.17 a.u.  22.69 22.69 22.46*2*pi/ulx,y,z
   ENINI  =  700.0     initial cutoff
   ENAUG  =  758.2 eV  augmentation charge cutoff
   NELM   =    500;   NELMIN=  2; NELMDL=  0     # of ELM steps 
   EDIFF  = 0.1E-07   stopping-criterion for ELM
   LREAL  =      F    real-space projection
   NLSPLINE    = F    spline interpolate recip. space projectors
   LCOMPAT=      F    compatible to vasp.4.4
   GGA_COMPAT  = T    GGA compatible to vasp.4.4-vasp.4.6
   LMAXPAW     = -100 max onsite density
   LMAXMIX     =    4 max onsite mixed and CHGCAR
   VOSKOWN=      0    Vosko Wilk Nusair interpolation
   ROPT   =    0.00000   0.00000   0.00000
 Ionic relaxation
   EDIFFG = -.1E-04   stopping-criterion for IOM
   NSW    =      0    number of steps for IOM
   NBLOCK =      1;   KBLOCK =      1    inner block; outer block 
   IBRION =     -1    ionic relax: 0-MD 1-quasi-New 2-CG
   NFREE  =      0    steps in history (QN), initial steepest desc. (CG)
   ISIF   =      2    stress and relaxation
   IWAVPR =     10    prediction:  0-non 1-charg 2-wave 3-comb
   ISYM   =      2    0-nonsym 1-usesym 2-fastsym
   LCORR  =      T    Harris-Foulkes like correction to forces

   POTIM  = 0.5000    time-step for ionic-motion
   TEIN   =    0.0    initial temperature
   TEBEG  =    0.0;   TEEND  =   0.0 temperature during run
   SMASS  =  -3.00    Nose mass-parameter (am)
   estimated Nose-frequenzy (Omega)   =  0.10E-29 period in steps =****** mass=  -0.253E-26a.u.
   SCALEE = 1.0000    scale energy and forces
   NPACO  =    256;   APACO  = 16.0  distance and # of slots for P.C.
   PSTRESS=    0.0 pullay stress

  Mass of Ions in am
   POMASS =  32.07 63.55 55.85
  Ionic Valenz
   ZVAL   =   6.00 17.00 14.00
  Atomic Wigner-Seitz radii
   RWIGS  =  -1.00 -1.00 -1.00
  virtual crystal weights 
   VCA    =   1.00  1.00  1.00
   NELECT =     688.0000    total number of electrons
   NUPDOWN=      -1.0000    fix difference up-down

 DOS related values:
   EMIN   =  10.00;   EMAX   =-10.00  energy-range for DOS
   EFERMI =   0.00
   ISMEAR =    -5;   SIGMA  =   0.03  broadening in eV -4-tet -1-fermi 0-gaus

 Electronic relaxation 2 (details)
   IALGO  =     38    algorithm
   LDIAG  =      T    sub-space diagonalisation (order eigenvalues)
   LSUBROT=      F    optimize rotation matrix (better conditioning)
   TURBO    =      0    0=normal 1=particle mesh
   IRESTART =      0    0=no restart 2=restart with 2 vectors
   NREBOOT  =      0    no. of reboots
   NMIN     =      0    reboot dimension
   EREF     =   0.00    reference energy to select bands
   IMIX   =      4    mixing-type and parameters
     AMIX     =   0.40;   BMIX     =  1.00
     AMIX_MAG =   1.60;   BMIX_MAG =  1.00
     AMIN     =   0.10
     WC   =   100.;   INIMIX=   1;  MIXPRE=   1;  MAXMIX= -45

 Intra band minimization:
   WEIMIN = 0.0000     energy-eigenvalue tresh-hold
   EBREAK =  0.49E-11  absolut break condition
   DEPER  =   0.30     relativ break condition  

   TIME   =   0.40     timestep for ELM

  volume/ion in A,a.u.               =      17.99       121.39
  Fermi-wavevector in a.u.,A,eV,Ry     =   1.378944  2.605827 25.871307  1.901487
  Thomas-Fermi vector in A             =   2.503959
 
 Write flags
   LWAVE        =      T    write WAVECAR
   LDOWNSAMPLE  =      F    k-point downsampling of WAVECAR
   LCHARG       =      T    write CHGCAR
   LVTOT        =      F    write LOCPOT, total local potential
   LVHAR        =      F    write LOCPOT, Hartree potential only
   LELF         =      F    write electronic localiz. function (ELF)
   LORBIT       =     11    0 simple, 1 ext, 2 COOP (PROOUT), +10 PAW based schemes


 Dipole corrections
   LMONO  =      F    monopole corrections only (constant potential shift)
   LDIPOL =      F    correct potential (dipole corrections)
   IDIPOL =      0    1-x, 2-y, 3-z, 4-all directions 
   EPSILON=  1.0000000 bulk dielectric constant

 LDA+U is selected, type is set to LDAUTYPE =  2
   angular momentum for each species LDAUL =     2    2    2
   U (eV)           for each species LDAUU =   0.0  0.1  4.7
   J (eV)           for each species LDAUJ =   0.0  0.0  0.0
 Exchange correlation treatment:
   GGA     =    PS    GGA type
   LEXCH   =    14    internal setting for exchange type
   VOSKOWN=      0    Vosko Wilk Nusair interpolation
   LHFCALC =     F    Hartree Fock is set to
   LHFONE  =     F    Hartree Fock one center treatment
   AEXX    =    0.0000 exact exchange contribution

 Linear response parameters
   LEPSILON=     F    determine dielectric tensor
   LRPA    =     F    only Hartree local field effects (RPA)
   LNABLA  =     F    use nabla operator in PAW spheres
   LVEL    =     F    velocity operator in full k-point grid
   LINTERFAST=   F  fast interpolation
   KINTER  =     0    interpolate to denser k-point grid
   CSHIFT  =0.1000    complex shift for real part using Kramers Kronig
   OMEGAMAX=  -1.0    maximum frequency
   DEG_THRESHOLD= 0.2000000E-02 threshold for treating states as degnerate
   RTIME   =   -0.100 relaxation time in fs
  (WPLASMAI=    0.000 imaginary part of plasma frequency in eV, 0.658/RTIME)
   DFIELD  = 0.0000000 0.0000000 0.0000000 field for delta impulse in time
 
 Orbital magnetization related:
   ORBITALMAG=     F  switch on orbital magnetization
   LCHIMAG   =     F  perturbation theory with respect to B field
   DQ        =  0.001000  dq finite difference perturbation B field
   LLRAUG    =     F  two centre corrections for induced B field

 PEAD related settings:
   LPEAD      =     T    switch on PEAD
   IPEAD      =     4    finite difference order for dpsi/dk
   LCALCPOL   =     T    calculate macroscopic polarization
   LCALCEPS   =     F    calculate dielectric tensor
   EFIELD_PEAD=    0.0000    0.0000    0.0000
   SKIP_EDOTP =     F
   LRPA       =     F
   SKIP_SCF   =     F


--------------------------------------------------------------------------------------------------------


 Static calculation
 charge density and potential will be updated during run
 spin polarized calculation
 Variant of blocked Davidson
 Davidson routine will perform the subspace rotation
 perform sub-space diagonalisation
    after iterative eigenvector-optimisation
 modified Broyden-mixing scheme, WC =      100.0
 initial mixing is a Kerker type mixing with AMIX =  0.4000 and BMIX =      1.0000
 Hartree-type preconditioning will be used
 using additional bands          168
 reciprocal scheme for non local part
 use partial core corrections
 calculate Harris-corrections to forces 
   (improved forces if not selfconsistent)
 use gradient corrections 
 use of overlap-Matrix (Vanderbilt PP)
 Fermi weights with tetrahedron method with Bloechl corrections


--------------------------------------------------------------------------------------------------------


  energy-cutoff  :      700.00
  volume of cell :     1151.26
      direct lattice vectors                 reciprocal lattice vectors
    10.515815000  0.000000000  0.027530000     0.095095516  0.000000000 -0.000248957
     0.000000000 10.516020000  0.000000000     0.000000000  0.095093010  0.000000000
     0.027255000  0.000000000 10.410735000    -0.000251469  0.000000000  0.096055356

  length of vectors
    10.515851036 10.516020000 10.410770676     0.095095842  0.095093010  0.096055685


 
 k-points in units of 2pi/SCALE and weight: Automatic mesh                          
   0.00000000  0.00000000  0.00000000       0.016
   0.02377388  0.00000000 -0.00006224       0.031
   0.04754776  0.00000000 -0.00012448       0.016
   0.00000000  0.02377325  0.00000000       0.031
   0.02377388  0.02377325 -0.00006224       0.062
   0.04754776  0.02377325 -0.00012448       0.031
   0.00000000  0.04754651  0.00000000       0.016
   0.02377388  0.04754651 -0.00006224       0.031
   0.04754776  0.04754651 -0.00012448       0.016
  -0.00006287  0.00000000  0.02401384       0.031
   0.02371101  0.00000000  0.02395160       0.031
   0.04748489  0.00000000  0.02388936       0.031
  -0.02383675  0.00000000  0.02407608       0.031
  -0.00006287  0.02377325  0.02401384       0.062
   0.02371101  0.02377325  0.02395160       0.062
   0.04748489  0.02377325  0.02388936       0.062
  -0.02383675  0.02377325  0.02407608       0.062
  -0.00006287  0.04754651  0.02401384       0.031
   0.02371101  0.04754651  0.02395160       0.031
   0.04748489  0.04754651  0.02388936       0.031
  -0.02383675  0.04754651  0.02407608       0.031
  -0.00012573  0.00000000  0.04802768       0.016
   0.02364814  0.00000000  0.04796544       0.031
   0.04742202  0.00000000  0.04790320       0.016
  -0.00012573  0.02377325  0.04802768       0.031
   0.02364814  0.02377325  0.04796544       0.062
   0.04742202  0.02377325  0.04790320       0.031
  -0.00012573  0.04754651  0.04802768       0.016
   0.02364814  0.04754651  0.04796544       0.031
   0.04742202  0.04754651  0.04790320       0.016
 
 k-points in reciprocal lattice and weights: Automatic mesh                          
   0.00000000  0.00000000  0.00000000       0.016
   0.25000000  0.00000000 -0.00000000       0.031
   0.50000000  0.00000000 -0.00000000       0.016
   0.00000000  0.25000000  0.00000000       0.031
   0.25000000  0.25000000 -0.00000000       0.062
   0.50000000  0.25000000 -0.00000000       0.031
   0.00000000  0.50000000  0.00000000       0.016
   0.25000000  0.50000000 -0.00000000       0.031
   0.50000000  0.50000000 -0.00000000       0.016
  -0.00000000  0.00000000  0.25000000       0.031
   0.25000000  0.00000000  0.25000000       0.031
   0.50000000  0.00000000  0.25000000       0.031
  -0.25000000  0.00000000  0.25000000       0.031
  -0.00000000  0.25000000  0.25000000       0.062
   0.25000000  0.25000000  0.25000000       0.062
   0.50000000  0.25000000  0.25000000       0.062
  -0.25000000  0.25000000  0.25000000       0.062
  -0.00000000  0.50000000  0.25000000       0.031
   0.25000000  0.50000000  0.25000000       0.031
   0.50000000  0.50000000  0.25000000       0.031
  -0.25000000  0.50000000  0.25000000       0.031
  -0.00000000  0.00000000  0.50000000       0.016
   0.25000000  0.00000000  0.50000000       0.031
   0.50000000  0.00000000  0.50000000       0.016
  -0.00000000  0.25000000  0.50000000       0.031
   0.25000000  0.25000000  0.50000000       0.062
   0.50000000  0.25000000  0.50000000       0.031
  -0.00000000  0.50000000  0.50000000       0.016
   0.25000000  0.50000000  0.50000000       0.031
   0.50000000  0.50000000  0.50000000       0.016
 
 position of ions in fractional coordinates (direct lattice) 
   0.12615900  0.12467200  0.12505500
   0.62615900  0.12467200  0.12505500
   0.12615900  0.62467200  0.12505500
   0.62615900  0.62467200  0.12505500
   0.37384100  0.37467200  0.12494500
   0.87384100  0.37467200  0.12494500
   0.37384100  0.87467200  0.12494500
   0.87384100  0.87467200  0.12494500
   0.12500000  0.37361600  0.87500000
   0.62500000  0.37361600  0.87500000
   0.12500000  0.87361600  0.87500000
   0.62500000  0.87361600  0.87500000
   0.37500000  0.12592400  0.87500000
   0.87500000  0.12592400  0.87500000
   0.37500000  0.62592400  0.87500000
   0.87500000  0.62592400  0.87500000
   0.12384100  0.12467200  0.62494500
   0.62384100  0.12467200  0.62494500
   0.12384100  0.62467200  0.62494500
   0.62384100  0.62467200  0.62494500
   0.37615900  0.37467200  0.62505500
   0.87615900  0.37467200  0.62505500
   0.37615900  0.87467200  0.62505500
   0.87615900  0.87467200  0.62505500
   0.37500000  0.12361600  0.37500000
   0.87500000  0.12361600  0.37500000
   0.37500000  0.62361600  0.37500000
   0.87500000  0.62361600  0.37500000
   0.12500000  0.37592400  0.37500000
   0.62500000  0.37592400  0.37500000
   0.12500000  0.87592400  0.37500000
   0.62500000  0.87592400  0.37500000
   0.99989900  0.00028300  0.49999900
   0.49989900  0.00028300  0.49999900
   0.99989900  0.50028300  0.49999900
   0.49989900  0.50028300  0.49999900
   0.25010100  0.00028300  0.25000100
   0.75010100  0.00028300  0.25000100
   0.25010100  0.50028300  0.25000100
   0.75010100  0.50028300  0.25000100
   0.24989900  0.25028300  0.99999900
   0.74989900  0.25028300  0.99999900
   0.24989900  0.75028300  0.99999900
   0.74989900  0.75028300  0.99999900
   0.00010100  0.25028300  0.75000100
   0.50010100  0.25028300  0.75000100
   0.00010100  0.75028300  0.75000100
   0.50010100  0.75028300  0.75000100
   0.99995000  0.00027500  0.00000500
   0.49995000  0.00027500  0.00000500
   0.99995000  0.50027500  0.00000500
   0.49995000  0.50027500  0.00000500
   0.25005000  0.00027500  0.74999500
   0.75005000  0.00027500  0.74999500
   0.25005000  0.50027500  0.74999500
   0.75005000  0.50027500  0.74999500
   0.24995000  0.25027500  0.50000500
   0.74995000  0.25027500  0.50000500
   0.24995000  0.75027500  0.50000500
   0.74995000  0.75027500  0.50000500
   0.00005000  0.25027500  0.24999500
   0.50005000  0.25027500  0.24999500
   0.00005000  0.75027500  0.24999500
   0.50005000  0.75027500  0.24999500
 
 position of ions in cartesian coordinates  (Angst):
   1.33007308  1.31105325  1.30538762
   6.58798058  1.31105325  1.31915262
   1.33007308  6.56906325  1.30538762
   6.58798058  6.56906325  1.31915262
   3.93464817  3.94005825  1.31106113
   9.19255567  3.94005825  1.32482613
   3.93464817  9.19806825  1.31106113
   9.19255567  9.19806825  1.32482613
   1.33832500  3.92895333  9.11283438
   6.59623250  3.92895333  9.12659937
   1.33832500  9.18696333  9.11283438
   6.59623250  9.18696333  9.12659937
   3.96727875  1.32421930  9.11971687
   9.22518625  1.32421930  9.13348188
   3.96727875  6.58222930  9.11971687
   9.22518625  6.58222930  9.13348188
   1.31932192  1.31105325  6.50954613
   6.57722942  1.31105325  6.52331113
   1.31932192  6.56906325  6.50954613
   6.57722942  6.56906325  6.52331113
   3.97265433  3.94005825  6.51763762
   9.23056183  3.94005825  6.53140262
   3.97265433  9.19806825  6.51763762
   9.23056183  9.19806825  6.53140262
   3.95365125  1.29994833  3.91434938
   9.21155875  1.29994833  3.92811438
   3.95365125  6.55795833  3.91434938
   9.21155875  6.55795833  3.92811438
   1.32469750  3.95322430  3.90746687
   6.58260500  3.95322430  3.92123188
   1.32469750  9.21123430  3.90746687
   6.58260500  9.21123430  3.92123188
  10.52838038  0.00297603  5.23288431
   5.27047288  0.00297603  5.21911931
  10.52838038  5.26098603  5.23288431
   5.27047288  5.26098603  5.21911931
   2.63682962  0.00297603  2.60957944
   7.89473712  0.00297603  2.62334444
   2.63682962  5.26098603  2.60957944
   7.89473712  5.26098603  2.62334444
   2.65514663  2.63198103 10.41760431
   7.91305413  2.63198103 10.43136931
   2.65514663  7.88999103 10.41760431
   7.91305413  7.88999103 10.43136931
   0.02150337  2.63198103  7.80806444
   5.27941087  2.63198103  7.82182944
   0.02150337  7.88999103  7.80806444
   5.27941087  7.88999103  7.82182944
  10.51528935  0.00289191  0.02758068
   5.25738185  0.00289191  0.01381568
  10.51528935  5.26090191  0.02758068
   5.25738185  5.26090191  0.01381568
   2.64992065  0.00289191  7.81488307
   7.90782815  0.00289191  7.82864807
   2.64992065  5.26090191  7.81488307
   7.90782815  5.26090191  7.82864807
   2.64205560  2.63189691  5.21230068
   7.89996310  2.63189691  5.22606568
   2.64205560  7.88990691  5.21230068
   7.89996310  7.88990691  5.22606568
   0.00733940  2.63189691  2.60263307
   5.26524690  2.63189691  2.61639807
   0.00733940  7.88990691  2.60263307
   5.26524690  7.88990691  2.61639807
 


--------------------------------------------------------------------------------------------------------


 k-point  1 :   0.0000 0.0000 0.0000  plane waves:   48415
 k-point  2 :   0.2500 0.0000-0.0000  plane waves:   48408
 k-point  3 :   0.5000 0.0000-0.0000  plane waves:   48440
 k-point  4 :   0.0000 0.2500 0.0000  plane waves:   48421
 k-point  5 :   0.2500 0.2500-0.0000  plane waves:   48427
 k-point  6 :   0.5000 0.2500-0.0000  plane waves:   48448
 k-point  7 :   0.0000 0.5000 0.0000  plane waves:   48442
 k-point  8 :   0.2500 0.5000-0.0000  plane waves:   48430
 k-point  9 :   0.5000 0.5000-0.0000  plane waves:   48424
 k-point 10 :  -0.0000 0.0000 0.2500  plane waves:   48422
 k-point 11 :   0.2500 0.0000 0.2500  plane waves:   48429
 k-point 12 :   0.5000 0.0000 0.2500  plane waves:   48422
 k-point 13 :  -0.2500 0.0000 0.2500  plane waves:   48444
 k-point 14 :  -0.0000 0.2500 0.2500  plane waves:   48444
 k-point 15 :   0.2500 0.2500 0.2500  plane waves:   48420
 k-point 16 :   0.5000 0.2500 0.2500  plane waves:   48411
 k-point 17 :  -0.2500 0.2500 0.2500  plane waves:   48396
 k-point 18 :  -0.0000 0.5000 0.2500  plane waves:   48450
 k-point 19 :   0.2500 0.5000 0.2500  plane waves:   48436
 k-point 20 :   0.5000 0.5000 0.2500  plane waves:   48422
 k-point 21 :  -0.2500 0.5000 0.2500  plane waves:   48394
 k-point 22 :  -0.0000 0.0000 0.5000  plane waves:   48438
 k-point 23 :   0.2500 0.0000 0.5000  plane waves:   48410
 k-point 24 :   0.5000 0.0000 0.5000  plane waves:   48404
 k-point 25 :  -0.0000 0.2500 0.5000  plane waves:   48418
 k-point 26 :   0.2500 0.2500 0.5000  plane waves:   48400
 k-point 27 :   0.5000 0.2500 0.5000  plane waves:   48356
 k-point 28 :  -0.0000 0.5000 0.5000  plane waves:   48396
 k-point 29 :   0.2500 0.5000 0.5000  plane waves:   48346
 k-point 30 :   0.5000 0.5000 0.5000  plane waves:   48388

 maximum and minimum number of plane-waves per node :     48450    48346

 maximum number of plane-waves:     48450
 maximum index in each direction: 
   IXMAX=   22   IYMAX=   22   IZMAX=   22
   IXMIN=  -23   IYMIN=  -23   IZMIN=  -22


 serial   3D FFT for wavefunctions
 parallel 3D FFT for charge:
    minimum data exchange during FFTs selected (reduces bandwidth)


 total amount of memory used by VASP MPI-rank0   881832. kBytes
=======================================================================

   base      :      30000. kBytes
   nonl-proj :     680181. kBytes
   fftplans  :       4588. kBytes
   grid      :      69719. kBytes
   one-center:       1990. kBytes
   wavefun   :      95354. kBytes
 
     INWAV:  cpu time    0.0000: real time    0.0000
 Broyden mixing: mesh for mixing (old mesh)
   NGX = 45   NGY = 45   NGZ = 45
  (NGX  =192   NGY  =192   NGZ  =180)
  gives a total of  91125 points

 initial charge density was supplied:
 charge density of overlapping atoms calculated
 number of electron     688.0000000 magnetization       0.0000000
 keeping initial charge density in first step


--------------------------------------------------------------------------------------------------------


 Maximum index for augmentation-charges          899 (set IRDMAX)


--------------------------------------------------------------------------------------------------------


 First call to EWALD:  gamma=   0.169
 Maximum number of real-space cells 3x 3x 3
 Maximum number of reciprocal cells 3x 3x 3

    FEWALD:  cpu time    0.0027: real time    0.0028


--------------------------------------- Iteration      1(   1)  ---------------------------------------


    POTLOK:  cpu time    0.3432: real time    0.3612
    SETDIJ:  cpu time    0.0143: real time    0.0144
     EDDAV:  cpu time  313.6774: real time  316.4688
 BZINTS: Fermi energy: 16.807727;688.000000 electrons
         Band energy:***********;  BLOECHL correction: -0.016485
       DOS:  cpu time    0.3199: real time    0.3211
    --------------------------------------------
      LOOP:  cpu time  314.3548: real time  317.1656

 eigenvalue-minimisations  : 61440
 total energy-change (2. order) : 0.6201768E+04  (-0.5038249E+05)
 number of electron     688.0000000 magnetization       0.0000000
 augmentation part      688.0000000 magnetization       0.0000000

 Free energy of the ion-electron system (eV)
  ---------------------------------------------------
  alpha Z        PSCENC =      2354.94559275
  Ewald energy   TEWEN  =    -62456.61097520
  -Hartree energ DENC   =    -44328.72265133
  -exchange      EXHF   =         0.00000000
  -V(xc)+E(xc)   XCENC  =      3320.12405575
  PAW double counting   =     94592.23312189   -98164.79192727
  entropy T*S    EENTRO =         0.00000000
  eigenvalues    EBANDS =     -3135.47411493
  atomic energy  EATOM  =    114020.06510763
  Solvation  Ediel_sol  =         0.00000000
  ---------------------------------------------------
  free energy    TOTEN  =      6201.76820928 eV

  energy without entropy =     6201.76820928  energy(sigma->0) =     6201.76820928


--------------------------------------------------------------------------------------------------------




--------------------------------------- Iteration      1(   2)  ---------------------------------------


     EDDAV:  cpu time  346.3259: real time  349.0228
 BZINTS: Fermi energy:  6.644621;688.000000 electrons
         Band energy:***********;  BLOECHL correction:  0.000000
       DOS:  cpu time    0.0467: real time    0.0469
    --------------------------------------------
      LOOP:  cpu time  346.3726: real time  349.0696

 eigenvalue-minimisations  : 64768
 total energy-change (2. order) :-0.6292614E+04  (-0.6161470E+04)
 number of electron     688.0000000 magnetization       0.0000000
 augmentation part      688.0000000 magnetization       0.0000000

 Free energy of the ion-electron system (eV)
  ---------------------------------------------------
  alpha Z        PSCENC =      2354.94559275
  Ewald energy   TEWEN  =    -62456.61097520
  -Hartree energ DENC   =    -44328.72265133
  -exchange      EXHF   =         0.00000000
  -V(xc)+E(xc)   XCENC  =      3320.12405575
  PAW double counting   =     94592.23312189   -98164.79192727
  entropy T*S    EENTRO =         0.00000000
  eigenvalues    EBANDS =     -9428.08841442
  atomic energy  EATOM  =    114020.06510763
  Solvation  Ediel_sol  =         0.00000000
  ---------------------------------------------------
  free energy    TOTEN  =       -90.84609021 eV

  energy without entropy =      -90.84609021  energy(sigma->0) =      -90.84609021


--------------------------------------------------------------------------------------------------------




--------------------------------------- Iteration      1(   3)  ---------------------------------------


     EDDAV:  cpu time  623.4716: real time  627.7182
 BZINTS: Fermi energy:  6.056260;688.000000 electrons
         Band energy:***********;  BLOECHL correction:  0.000000
       DOS:  cpu time    0.0390: real time    0.0391
    --------------------------------------------
      LOOP:  cpu time  623.5106: real time  627.7573

 eigenvalue-minimisations  : 88320
 total energy-change (2. order) :-0.2815449E+03  (-0.2802901E+03)
 number of electron     688.0000000 magnetization       0.0000000
 augmentation part      688.0000000 magnetization       0.0000000

 Free energy of the ion-electron system (eV)
  ---------------------------------------------------
  alpha Z        PSCENC =      2354.94559275
  Ewald energy   TEWEN  =    -62456.61097520
  -Hartree energ DENC   =    -44328.72265133
  -exchange      EXHF   =         0.00000000
  -V(xc)+E(xc)   XCENC  =      3320.12405575
  PAW double counting   =     94592.23312189   -98164.79192727
  entropy T*S    EENTRO =         0.00000000
  eigenvalues    EBANDS =     -9709.63327479
  atomic energy  EATOM  =    114020.06510763
  Solvation  Ediel_sol  =         0.00000000
  ---------------------------------------------------
  free energy    TOTEN  =      -372.39095058 eV

  energy without entropy =     -372.39095058  energy(sigma->0) =     -372.39095058


--------------------------------------------------------------------------------------------------------




--------------------------------------- Iteration      1(   4)  ---------------------------------------


     EDDAV:  cpu time  383.0625: real time  385.9484
 BZINTS: Fermi energy:  6.128795;688.000000 electrons
         Band energy:***********;  BLOECHL correction:  0.000000
       DOS:  cpu time    0.0460: real time    0.0462
    --------------------------------------------
      LOOP:  cpu time  383.1085: real time  385.9946

 eigenvalue-minimisations  : 67328
 total energy-change (2. order) :-0.3945014E+01  (-0.3944757E+01)
 number of electron     688.0000000 magnetization       0.0000000
 augmentation part      688.0000000 magnetization       0.0000000

 Free energy of the ion-electron system (eV)
  ---------------------------------------------------
  alpha Z        PSCENC =      2354.94559275
  Ewald energy   TEWEN  =    -62456.61097520
  -Hartree energ DENC   =    -44328.72265133
  -exchange      EXHF   =         0.00000000
  -V(xc)+E(xc)   XCENC  =      3320.12405575
  PAW double counting   =     94592.23312189   -98164.79192727
  entropy T*S    EENTRO =         0.00000000
  eigenvalues    EBANDS =     -9713.57828865
  atomic energy  EATOM  =    114020.06510763
  Solvation  Ediel_sol  =         0.00000000
  ---------------------------------------------------
  free energy    TOTEN  =      -376.33596444 eV

  energy without entropy =     -376.33596444  energy(sigma->0) =     -376.33596444


--------------------------------------------------------------------------------------------------------




--------------------------------------- Iteration      1(   5)  ---------------------------------------


     EDDAV:  cpu time  612.1647: real time  616.3109
 BZINTS: Fermi energy:  6.091509;688.000000 electrons
         Band energy:***********;  BLOECHL correction:  0.000000
       DOS:  cpu time    0.0461: real time    0.0463
    CHARGE:  cpu time    3.9422: real time    3.9681
    MIXING:  cpu time    0.0053: real time    0.0054
    --------------------------------------------
      LOOP:  cpu time  616.1583: real time  620.3307

 eigenvalue-minimisations  : 86784
 total energy-change (2. order) :-0.1045022E+00  (-0.1045016E+00)
 number of electron     688.0000425 magnetization       0.0000000
 augmentation part      261.0341352 magnetization       0.0000000

 Broyden mixing:
  rms(total) = 0.74968E+01    rms(broyden)= 0.74967E+01
  rms(prec ) = 0.89736E+01
  weight for this iteration     100.00

 Free energy of the ion-electron system (eV)
  ---------------------------------------------------
  alpha Z        PSCENC =      2354.94559275
  Ewald energy   TEWEN  =    -62456.61097520
  -Hartree energ DENC   =    -44328.72265133
  -exchange      EXHF   =         0.00000000
  -V(xc)+E(xc)   XCENC  =      3320.12405575
  PAW double counting   =     94592.23312189   -98164.79192727
  entropy T*S    EENTRO =         0.00000000
  eigenvalues    EBANDS =     -9713.68279086
  atomic energy  EATOM  =    114020.06510763
  Solvation  Ediel_sol  =         0.00000000
  ---------------------------------------------------
  free energy    TOTEN  =      -376.44046665 eV

  energy without entropy =     -376.44046665  energy(sigma->0) =     -376.44046665


--------------------------------------------------------------------------------------------------------




--------------------------------------- Iteration      1(   6)  ---------------------------------------


    POTLOK:  cpu time    0.1184: real time    0.1222
    SETDIJ:  cpu time    0.0129: real time    0.0129
     EDDAV:  cpu time  319.3155: real time  321.8041
 BZINTS: Fermi energy:  4.288178;688.000000 electrons
         Band energy:***********;  BLOECHL correction: -0.000000
       DOS:  cpu time    0.1182: real time    0.1187
    CHARGE:  cpu time    3.9408: real time    3.9693
    MIXING:  cpu time    0.0023: real time    0.1288
    --------------------------------------------
      LOOP:  cpu time  323.5080: real time  326.1560

 eigenvalue-minimisations  : 61440
 total energy-change (2. order) : 0.4156630E+02  (-0.5899605E+02)
 number of electron     688.0000459 magnetization       0.0000000
 augmentation part      296.1539063 magnetization       0.0000000

 Broyden mixing:
  rms(total) = 0.99889E+01    rms(broyden)= 0.99888E+01
  rms(prec ) = 0.10428E+02
  weight for this iteration     100.00

 eigenvalues of (default mixing * dielectric matrix)
  average eigenvalue GAMMA=   0.1669
  0.1669

 Free energy of the ion-electron system (eV)
  ---------------------------------------------------
  alpha Z        PSCENC =      2354.94559275
  Ewald energy   TEWEN  =    -62456.61097520
  -Hartree energ DENC   =    -42373.24293733
  -exchange      EXHF   =         0.00000000
  -V(xc)+E(xc)   XCENC  =      3267.55532996
  PAW double counting   =     96416.72625045   -99776.07927913
  entropy T*S    EENTRO =         0.00000000
  eigenvalues    EBANDS =    -11788.23325415
  atomic energy  EATOM  =    114020.06510763
  Solvation  Ediel_sol  =         0.00000000
  ---------------------------------------------------
  free energy    TOTEN  =      -334.87416501 eV

  energy without entropy =     -334.87416501  energy(sigma->0) =     -334.87416501


--------------------------------------------------------------------------------------------------------




--------------------------------------- Iteration      1(   7)  ---------------------------------------


    POTLOK:  cpu time    0.1157: real time    0.1191
    SETDIJ:  cpu time    0.0126: real time    0.0126
     EDDAV:  cpu time  317.4563: real time  319.9625
 BZINTS: Fermi energy:  4.577442;688.000000 electrons
         Band energy:***********;  BLOECHL correction:  0.000000
       DOS:  cpu time    0.0464: real time    0.0465
    CHARGE:  cpu time    3.9993: real time    4.0273
    MIXING:  cpu time    0.0016: real time    0.0229
    --------------------------------------------
      LOOP:  cpu time  321.6318: real time  324.1909

 eigenvalue-minimisations  : 61440
 total energy-change (2. order) : 0.4977851E+01  (-0.1083000E+02)
 number of electron     688.0000446 magnetization       0.0000000
 augmentation part      286.1199419 magnetization       0.0000000

 Broyden mixing:
  rms(total) = 0.43623E+01    rms(broyden)= 0.43623E+01
  rms(prec ) = 0.44361E+01
  weight for this iteration     100.00

 eigenvalues of (default mixing * dielectric matrix)
  average eigenvalue GAMMA=   0.6169
  0.7613  0.4725

 Free energy of the ion-electron system (eV)
  ---------------------------------------------------
  alpha Z        PSCENC =      2354.94559275
  Ewald energy   TEWEN  =    -62456.61097520
  -Hartree energ DENC   =    -42853.39721200
  -exchange      EXHF   =         0.00000000
  -V(xc)+E(xc)   XCENC  =      3278.97458440
  PAW double counting   =     99827.34499742  -103343.24114266
  entropy T*S    EENTRO =         0.00000000
  eigenvalues    EBANDS =    -11157.97726655
  atomic energy  EATOM  =    114020.06510763
  Solvation  Ediel_sol  =         0.00000000
  ---------------------------------------------------
  free energy    TOTEN  =      -329.89631422 eV

  energy without entropy =     -329.89631422  energy(sigma->0) =     -329.89631422


--------------------------------------------------------------------------------------------------------




--------------------------------------- Iteration      1(   8)  ---------------------------------------


    POTLOK:  cpu time    0.1182: real time    0.1191
    SETDIJ:  cpu time    0.0126: real time    0.0126
     EDDAV:  cpu time  543.0110: real time  546.7895
 BZINTS: Fermi energy:  5.083129;688.000000 electrons
         Band energy:***********;  BLOECHL correction:  0.000000
       DOS:  cpu time    0.0463: real time    0.0465
    CHARGE:  cpu time    3.9407: real time    3.9671
    MIXING:  cpu time    0.0014: real time    0.0014
    --------------------------------------------
      LOOP:  cpu time  547.1301: real time  550.9362

 eigenvalue-minimisations  : 80896
 total energy-change (2. order) : 0.2548344E+00  (-0.3331458E+01)
 number of electron     688.0000443 magnetization       0.0000000
 augmentation part      281.4613956 magnetization       0.0000000

 Broyden mixing:
  rms(total) = 0.31358E+01    rms(broyden)= 0.31357E+01
  rms(prec ) = 0.33702E+01
  weight for this iteration     100.00

 eigenvalues of (default mixing * dielectric matrix)
  average eigenvalue GAMMA=   0.8934
  1.6021  0.6197  0.4584

 Free energy of the ion-electron system (eV)
  ---------------------------------------------------
  alpha Z        PSCENC =      2354.94559275
  Ewald energy   TEWEN  =    -62456.61097520
  -Hartree energ DENC   =    -43110.93880923
  -exchange      EXHF   =         0.00000000
  -V(xc)+E(xc)   XCENC  =      3291.04746879
  PAW double counting   =    105324.84466596  -108940.59917945
  entropy T*S    EENTRO =         0.00000000
  eigenvalues    EBANDS =    -10812.39535104
  atomic energy  EATOM  =    114020.06510763
  Solvation  Ediel_sol  =         0.00000000
  ---------------------------------------------------
  free energy    TOTEN  =      -329.64147979 eV

  energy without entropy =     -329.64147979  energy(sigma->0) =     -329.64147979


--------------------------------------------------------------------------------------------------------




--------------------------------------- Iteration      1(   9)  ---------------------------------------


    POTLOK:  cpu time    0.1183: real time    0.1191
    SETDIJ:  cpu time    0.0127: real time    0.0128
     EDDAV:  cpu time  426.6602: real time  430.2391
 BZINTS: Fermi energy:  4.555791;688.000000 electrons
         Band energy:***********;  BLOECHL correction:  0.000000
       DOS:  cpu time    0.0485: real time    0.0498
    CHARGE:  cpu time    3.9393: real time    3.9784
    MIXING:  cpu time    0.0073: real time    0.2888
    --------------------------------------------
      LOOP:  cpu time  430.7865: real time  434.6881

 eigenvalue-minimisations  : 73472
 total energy-change (2. order) :-0.1931810E+01  (-0.9262743E+01)
 number of electron     688.0000441 magnetization       0.0000000
 augmentation part      282.1058915 magnetization       0.0000000

 Broyden mixing:
  rms(total) = 0.23122E+01    rms(broyden)= 0.23121E+01
  rms(prec ) = 0.27521E+01
  weight for this iteration     100.00

 eigenvalues of (default mixing * dielectric matrix)
  average eigenvalue GAMMA=   0.9820
  2.3976  0.5957  0.5957  0.3390

 Free energy of the ion-electron system (eV)
  ---------------------------------------------------
  alpha Z        PSCENC =      2354.94559275
  Ewald energy   TEWEN  =    -62456.61097520
  -Hartree energ DENC   =    -42898.46262008
  -exchange      EXHF   =         0.00000000
  -V(xc)+E(xc)   XCENC  =      3284.02097635
  PAW double counting   =    109920.66900469  -113574.58059341
  entropy T*S    EENTRO =         0.00000000
  eigenvalues    EBANDS =    -10981.61978204
  atomic energy  EATOM  =    114020.06510763
  Solvation  Ediel_sol  =         0.00000000
  ---------------------------------------------------
  free energy    TOTEN  =      -331.57328932 eV

  energy without entropy =     -331.57328932  energy(sigma->0) =     -331.57328932


--------------------------------------------------------------------------------------------------------




--------------------------------------- Iteration      1(  10)  ---------------------------------------


    POTLOK:  cpu time    0.1241: real time    0.1260
    SETDIJ:  cpu time    0.0139: real time    0.0140
     EDDAV:  cpu time  538.5298: real time  542.3339
 BZINTS: Fermi energy:  4.777655;688.000000 electrons
         Band energy:***********;  BLOECHL correction:  0.000000
       DOS:  cpu time    0.0392: real time    0.0394
    CHARGE:  cpu time    3.9708: real time    3.9979
    MIXING:  cpu time    0.0015: real time    0.0015
    --------------------------------------------
      LOOP:  cpu time  542.6791: real time  546.5125

 eigenvalue-minimisations  : 82432
 total energy-change (2. order) : 0.3576121E+01  (-0.2161126E+01)
 number of electron     688.0000440 magnetization       0.0000000
 augmentation part      282.3873907 magnetization       0.0000000

 Broyden mixing:
  rms(total) = 0.28545E+00    rms(broyden)= 0.28539E+00
  rms(prec ) = 0.30227E+00
  weight for this iteration     100.00

 eigenvalues of (default mixing * dielectric matrix)
  average eigenvalue GAMMA=   0.9176
  2.3649  0.7577  0.5691  0.5691  0.3272

 Free energy of the ion-electron system (eV)
  ---------------------------------------------------
  alpha Z        PSCENC =      2354.94559275
  Ewald energy   TEWEN  =    -62456.61097520
  -Hartree energ DENC   =    -42930.71975399
  -exchange      EXHF   =         0.00000000
  -V(xc)+E(xc)   XCENC  =      3287.37584822
  PAW double counting   =    113304.42619963  -117001.88336664
  entropy T*S    EENTRO =         0.00000000
  eigenvalues    EBANDS =    -10905.59582021
  atomic energy  EATOM  =    114020.06510763
  Solvation  Ediel_sol  =         0.00000000
  ---------------------------------------------------
  free energy    TOTEN  =      -327.99716782 eV

  energy without entropy =     -327.99716782  energy(sigma->0) =     -327.99716782


--------------------------------------------------------------------------------------------------------




--------------------------------------- Iteration      1(  11)  ---------------------------------------


    POTLOK:  cpu time    0.1158: real time    0.1164
    SETDIJ:  cpu time    0.0125: real time    0.0125
     EDDAV:  cpu time  506.6366: real time  510.2527
 BZINTS: Fermi energy:  5.004082;688.000000 electrons
         Band energy:***********;  BLOECHL correction:  0.000000
       DOS:  cpu time    0.0466: real time    0.0467
    CHARGE:  cpu time    3.9422: real time    3.9716
    MIXING:  cpu time    0.0016: real time    0.0016
    --------------------------------------------
      LOOP:  cpu time  510.7552: real time  514.4016

 eigenvalue-minimisations  : 78592
 total energy-change (2. order) :-0.1246820E+00  (-0.1055016E+00)
 number of electron     688.0000440 magnetization       0.0000000
 augmentation part      282.3545563 magnetization       0.0000000

 Broyden mixing:
  rms(total) = 0.35111E+00    rms(broyden)= 0.35110E+00
  rms(prec ) = 0.38657E+00
  weight for this iteration     100.00

 eigenvalues of (default mixing * dielectric matrix)
  average eigenvalue GAMMA=   0.9028
  2.2596  0.7438  0.7438  0.7340  0.5918  0.3438

 Free energy of the ion-electron system (eV)
  ---------------------------------------------------
  alpha Z        PSCENC =      2354.94559275
  Ewald energy   TEWEN  =    -62456.61097520
  -Hartree energ DENC   =    -42946.91771854
  -exchange      EXHF   =         0.00000000
  -V(xc)+E(xc)   XCENC  =      3287.04231703
  PAW double counting   =    113092.95273274  -116790.42841486
  entropy T*S    EENTRO =         0.00000000
  eigenvalues    EBANDS =    -10889.17049137
  atomic energy  EATOM  =    114020.06510763
  Solvation  Ediel_sol  =         0.00000000
  ---------------------------------------------------
  free energy    TOTEN  =      -328.12184983 eV

  energy without entropy =     -328.12184983  energy(sigma->0) =     -328.12184983


--------------------------------------------------------------------------------------------------------




--------------------------------------- Iteration      1(  12)  ---------------------------------------


    POTLOK:  cpu time    0.1180: real time    0.1187
    SETDIJ:  cpu time    0.0127: real time    0.0128
     EDDAV:  cpu time  539.0481: real time  542.8228
 BZINTS: Fermi energy:  4.985346;688.000000 electrons
         Band energy:***********;  BLOECHL correction:  0.000000
       DOS:  cpu time    0.0466: real time    0.0468
    CHARGE:  cpu time    3.9522: real time    3.9808
    MIXING:  cpu time    0.0015: real time    0.0015
    --------------------------------------------
      LOOP:  cpu time  543.1792: real time  546.9833

 eigenvalue-minimisations  : 81408
 total energy-change (2. order) : 0.1203079E-01  (-0.4696495E-01)
 number of electron     688.0000440 magnetization      -0.0000000
 augmentation part      282.2527741 magnetization      -0.0000000

 Broyden mixing:
  rms(total) = 0.13502E+00    rms(broyden)= 0.13502E+00
  rms(prec ) = 0.14905E+00
  weight for this iteration     100.00

 eigenvalues of (default mixing * dielectric matrix)
  average eigenvalue GAMMA=   0.9374
  2.2793  1.0638  1.0638  0.6141  0.6141  0.5829  0.3439

 Free energy of the ion-electron system (eV)
  ---------------------------------------------------
  alpha Z        PSCENC =      2354.94559275
  Ewald energy   TEWEN  =    -62456.61097520
  -Hartree energ DENC   =    -42945.97539503
  -exchange      EXHF   =         0.00000000
  -V(xc)+E(xc)   XCENC  =      3286.56941946
  PAW double counting   =    112702.98617404  -116397.58031190
  entropy T*S    EENTRO =         0.00000000
  eigenvalues    EBANDS =    -10892.50943078
  atomic energy  EATOM  =    114020.06510763
  Solvation  Ediel_sol  =         0.00000000
  ---------------------------------------------------
  free energy    TOTEN  =      -328.10981904 eV

  energy without entropy =     -328.10981904  energy(sigma->0) =     -328.10981904


--------------------------------------------------------------------------------------------------------




--------------------------------------- Iteration      1(  13)  ---------------------------------------


    POTLOK:  cpu time    0.1166: real time    0.1173
    SETDIJ:  cpu time    0.0125: real time    0.0126
     EDDAV:  cpu time  455.9422: real time  459.2690
 BZINTS: Fermi energy:  4.988424;688.000000 electrons
         Band energy:***********;  BLOECHL correction:  0.000000
       DOS:  cpu time    0.0466: real time    0.0468
    CHARGE:  cpu time    3.9540: real time    3.9843
    MIXING:  cpu time    0.0015: real time    0.0015
    --------------------------------------------
      LOOP:  cpu time  460.0734: real time  463.4316

 eigenvalue-minimisations  : 74240
 total energy-change (2. order) :-0.4523279E-02  (-0.5070255E-02)
 number of electron     688.0000439 magnetization       0.0000000
 augmentation part      282.2531031 magnetization       0.0000000

 Broyden mixing:
  rms(total) = 0.94398E-01    rms(broyden)= 0.94397E-01
  rms(prec ) = 0.95878E-01
  weight for this iteration     100.00

 eigenvalues of (default mixing * dielectric matrix)
  average eigenvalue GAMMA=   1.1244
  2.5397  2.5397  0.3440  0.8438  0.8438  0.6479  0.6479  0.5887

 Free energy of the ion-electron system (eV)
  ---------------------------------------------------
  alpha Z        PSCENC =      2354.94559275
  Ewald energy   TEWEN  =    -62456.61097520
  -Hartree energ DENC   =    -42952.65324957
  -exchange      EXHF   =         0.00000000
  -V(xc)+E(xc)   XCENC  =      3286.64069600
  PAW double counting   =    112445.37034839  -116139.85426809
  entropy T*S    EENTRO =         0.00000000
  eigenvalues    EBANDS =    -10886.01759423
  atomic energy  EATOM  =    114020.06510763
  Solvation  Ediel_sol  =         0.00000000
  ---------------------------------------------------
  free energy    TOTEN  =      -328.11434232 eV

  energy without entropy =     -328.11434232  energy(sigma->0) =     -328.11434232


--------------------------------------------------------------------------------------------------------




--------------------------------------- Iteration      1(  14)  ---------------------------------------


    POTLOK:  cpu time    0.1156: real time    0.1162
    SETDIJ:  cpu time    0.0126: real time    0.0126
     EDDAV:  cpu time  638.4498: real time  642.7820
 BZINTS: Fermi energy:  4.990797;688.000000 electrons
         Band energy:***********;  BLOECHL correction:  0.000000
       DOS:  cpu time    0.0466: real time    0.0467
    CHARGE:  cpu time    3.9522: real time    3.9816
    MIXING:  cpu time    0.0018: real time    0.0018
    --------------------------------------------
      LOOP:  cpu time  642.5785: real time  646.9409

 eigenvalue-minimisations  : 89088
 total energy-change (2. order) :-0.9415849E-02  (-0.4701333E-02)
 number of electron     688.0000439 magnetization       0.0000000
 augmentation part      282.2116571 magnetization       0.0000000

 Broyden mixing:
  rms(total) = 0.39355E-01    rms(broyden)= 0.39349E-01
  rms(prec ) = 0.44067E-01
  weight for this iteration     100.00

 eigenvalues of (default mixing * dielectric matrix)
  average eigenvalue GAMMA=   1.0508
  2.3522  2.3522  0.9408  0.9408  0.3439  0.6393  0.6393  0.5728  0.6755

 Free energy of the ion-electron system (eV)
  ---------------------------------------------------
  alpha Z        PSCENC =      2354.94559275
  Ewald energy   TEWEN  =    -62456.61097520
  -Hartree energ DENC   =    -42960.89105889
  -exchange      EXHF   =         0.00000000
  -V(xc)+E(xc)   XCENC  =      3286.44720445
  PAW double counting   =    112154.58946497  -115848.68922099
  entropy T*S    EENTRO =         0.00000000
  eigenvalues    EBANDS =    -10877.97987287
  atomic energy  EATOM  =    114020.06510763
  Solvation  Ediel_sol  =         0.00000000
  ---------------------------------------------------
  free energy    TOTEN  =      -328.12375817 eV

  energy without entropy =     -328.12375817  energy(sigma->0) =     -328.12375817


--------------------------------------------------------------------------------------------------------




--------------------------------------- Iteration      1(  15)  ---------------------------------------


    POTLOK:  cpu time    0.1161: real time    0.1168
    SETDIJ:  cpu time    0.0125: real time    0.0126
     EDDAV:  cpu time  370.9140: real time  373.7146
[...]
   -.422E+02 0.183E+01 -.155E+00   0.430E+02 -.184E+01 0.157E+00   -.862E+00 0.120E-01 -.179E-02   -.418E-04 -.648E-06 -.200E-06
   -.422E+02 0.183E+01 -.155E+00   0.430E+02 -.184E+01 0.157E+00   -.862E+00 0.120E-01 -.179E-02   -.418E-04 -.648E-06 -.200E-06
   -.422E+02 0.183E+01 -.155E+00   0.430E+02 -.184E+01 0.157E+00   -.862E+00 0.120E-01 -.179E-02   -.418E-04 -.648E-06 -.200E-06
   -.422E+02 0.183E+01 -.155E+00   0.430E+02 -.184E+01 0.157E+00   -.862E+00 0.120E-01 -.179E-02   -.418E-04 -.648E-06 -.200E-06
   0.422E+02 0.183E+01 0.155E+00   -.430E+02 -.184E+01 -.157E+00   0.862E+00 0.120E-01 0.179E-02   0.418E-04 -.648E-06 0.200E-06
   0.422E+02 0.183E+01 0.155E+00   -.430E+02 -.184E+01 -.157E+00   0.862E+00 0.120E-01 0.179E-02   0.418E-04 -.648E-06 0.200E-06
   0.422E+02 0.183E+01 0.155E+00   -.430E+02 -.184E+01 -.157E+00   0.862E+00 0.120E-01 0.179E-02   0.418E-04 -.648E-06 0.200E-06
   0.422E+02 0.183E+01 0.155E+00   -.430E+02 -.184E+01 -.157E+00   0.862E+00 0.120E-01 0.179E-02   0.418E-04 -.648E-06 0.200E-06
   0.491E-07 -.408E+02 0.229E-06   -.178E-13 0.416E+02 -.142E-13   -.329E-17 -.851E+00 -.217E-18   0.262E-13 -.408E-04 -.990E-13
   0.491E-07 -.408E+02 0.229E-06   -.160E-13 0.416E+02 0.808E-13   0.335E-17 -.851E+00 0.488E-18   0.698E-13 -.408E-04 -.164E-13
   0.491E-07 -.408E+02 0.229E-06   0.000E+00 0.416E+02 0.853E-13   0.218E-17 -.851E+00 -.108E-18   -.161E-13 -.408E-04 -.507E-13
   0.491E-07 -.408E+02 0.229E-06   -.142E-13 0.416E+02 0.249E-13   -.231E-17 -.851E+00 -.217E-18   0.136E-13 -.408E-04 0.786E-13
   0.298E-07 0.436E+02 -.207E-06   0.124E-13 -.445E+02 -.497E-13   0.426E-18 0.873E+00 -.217E-18   -.639E-13 0.426E-04 -.500E-13
   0.298E-07 0.436E+02 -.207E-06   0.000E+00 -.445E+02 -.568E-13   0.282E-18 0.873E+00 0.239E-17   0.172E-13 0.426E-04 -.134E-12
   0.298E-07 0.436E+02 -.207E-06   -.142E-13 -.445E+02 -.213E-13   -.259E-18 0.873E+00 0.434E-18   -.255E-13 0.426E-04 -.110E-13
   0.298E-07 0.436E+02 -.207E-06   -.284E-13 -.445E+02 0.000E+00   -.186E-18 0.873E+00 0.000E+00   0.625E-13 0.426E-04 -.440E-13
   0.383E+00 -.173E+01 0.158E-01   -.378E+00 0.166E+01 -.162E-01   -.514E-02 0.697E-01 0.347E-03   -.525E-05 0.508E-06 -.131E-06
   0.383E+00 -.173E+01 0.158E-01   -.378E+00 0.166E+01 -.162E-01   -.514E-02 0.697E-01 0.347E-03   -.525E-05 0.508E-06 -.131E-06
   0.383E+00 -.173E+01 0.158E-01   -.378E+00 0.166E+01 -.162E-01   -.514E-02 0.697E-01 0.347E-03   -.525E-05 0.508E-06 -.131E-06
   0.383E+00 -.173E+01 0.158E-01   -.378E+00 0.166E+01 -.162E-01   -.514E-02 0.697E-01 0.347E-03   -.525E-05 0.508E-06 -.131E-06
   -.383E+00 -.173E+01 -.158E-01   0.378E+00 0.166E+01 0.162E-01   0.514E-02 0.697E-01 -.347E-03   0.525E-05 0.508E-06 0.131E-06
   -.383E+00 -.173E+01 -.158E-01   0.378E+00 0.166E+01 0.162E-01   0.514E-02 0.697E-01 -.347E-03   0.525E-05 0.508E-06 0.131E-06
   -.383E+00 -.173E+01 -.158E-01   0.378E+00 0.166E+01 0.162E-01   0.514E-02 0.697E-01 -.347E-03   0.525E-05 0.508E-06 0.131E-06
   -.383E+00 -.173E+01 -.158E-01   0.378E+00 0.166E+01 0.162E-01   0.514E-02 0.697E-01 -.347E-03   0.525E-05 0.508E-06 0.131E-06
   0.383E+00 -.173E+01 0.158E-01   -.378E+00 0.166E+01 -.162E-01   -.514E-02 0.697E-01 0.347E-03   -.525E-05 0.508E-06 -.131E-06
   0.383E+00 -.173E+01 0.158E-01   -.378E+00 0.166E+01 -.162E-01   -.514E-02 0.697E-01 0.347E-03   -.525E-05 0.508E-06 -.131E-06
   0.383E+00 -.173E+01 0.158E-01   -.378E+00 0.166E+01 -.162E-01   -.514E-02 0.697E-01 0.347E-03   -.525E-05 0.508E-06 -.131E-06
   0.383E+00 -.173E+01 0.158E-01   -.378E+00 0.166E+01 -.162E-01   -.514E-02 0.697E-01 0.347E-03   -.525E-05 0.508E-06 -.131E-06
   -.383E+00 -.173E+01 -.158E-01   0.378E+00 0.166E+01 0.162E-01   0.514E-02 0.697E-01 -.347E-03   0.525E-05 0.508E-06 0.131E-06
   -.383E+00 -.173E+01 -.158E-01   0.378E+00 0.166E+01 0.162E-01   0.514E-02 0.697E-01 -.347E-03   0.525E-05 0.508E-06 0.131E-06
   -.383E+00 -.173E+01 -.158E-01   0.378E+00 0.166E+01 0.162E-01   0.514E-02 0.697E-01 -.347E-03   0.525E-05 0.508E-06 0.131E-06
   -.383E+00 -.173E+01 -.158E-01   0.378E+00 0.166E+01 0.162E-01   0.514E-02 0.697E-01 -.347E-03   0.525E-05 0.508E-06 0.131E-06
   -.447E+00 -.169E+01 0.206E-01   0.438E+00 0.159E+01 -.212E-01   0.952E-02 0.926E-01 0.409E-03   0.641E-05 -.151E-04 -.849E-07
   -.447E+00 -.169E+01 0.206E-01   0.438E+00 0.159E+01 -.212E-01   0.952E-02 0.926E-01 0.409E-03   0.641E-05 -.151E-04 -.849E-07
   -.447E+00 -.169E+01 0.206E-01   0.438E+00 0.159E+01 -.212E-01   0.952E-02 0.926E-01 0.409E-03   0.641E-05 -.151E-04 -.849E-07
   -.447E+00 -.169E+01 0.206E-01   0.438E+00 0.159E+01 -.212E-01   0.952E-02 0.926E-01 0.409E-03   0.641E-05 -.151E-04 -.849E-07
   0.447E+00 -.169E+01 -.206E-01   -.438E+00 0.159E+01 0.212E-01   -.952E-02 0.926E-01 -.409E-03   -.641E-05 -.151E-04 0.849E-07
   0.447E+00 -.169E+01 -.206E-01   -.438E+00 0.159E+01 0.212E-01   -.952E-02 0.926E-01 -.409E-03   -.641E-05 -.151E-04 0.849E-07
   0.447E+00 -.169E+01 -.206E-01   -.438E+00 0.159E+01 0.212E-01   -.952E-02 0.926E-01 -.409E-03   -.641E-05 -.151E-04 0.849E-07
   0.447E+00 -.169E+01 -.206E-01   -.438E+00 0.159E+01 0.212E-01   -.952E-02 0.926E-01 -.409E-03   -.641E-05 -.151E-04 0.849E-07
   -.447E+00 -.169E+01 0.206E-01   0.438E+00 0.159E+01 -.212E-01   0.952E-02 0.926E-01 0.409E-03   0.641E-05 -.151E-04 -.849E-07
   -.447E+00 -.169E+01 0.206E-01   0.438E+00 0.159E+01 -.212E-01   0.952E-02 0.926E-01 0.409E-03   0.641E-05 -.151E-04 -.849E-07
   -.447E+00 -.169E+01 0.206E-01   0.438E+00 0.159E+01 -.212E-01   0.952E-02 0.926E-01 0.409E-03   0.641E-05 -.151E-04 -.849E-07
   -.447E+00 -.169E+01 0.206E-01   0.438E+00 0.159E+01 -.212E-01   0.952E-02 0.926E-01 0.409E-03   0.641E-05 -.151E-04 -.849E-07
   0.447E+00 -.169E+01 -.206E-01   -.438E+00 0.159E+01 0.212E-01   -.952E-02 0.926E-01 -.409E-03   -.641E-05 -.151E-04 0.849E-07
   0.447E+00 -.169E+01 -.206E-01   -.438E+00 0.159E+01 0.212E-01   -.952E-02 0.926E-01 -.409E-03   -.641E-05 -.151E-04 0.849E-07
   0.447E+00 -.169E+01 -.206E-01   -.438E+00 0.159E+01 0.212E-01   -.952E-02 0.926E-01 -.409E-03   -.641E-05 -.151E-04 0.849E-07
   0.447E+00 -.169E+01 -.206E-01   -.438E+00 0.159E+01 0.212E-01   -.952E-02 0.926E-01 -.409E-03   -.641E-05 -.151E-04 0.849E-07
 -----------------------------------------------------------------------------------------------
   0.499E-06 -.297E+01 0.110E-03   0.382E-12 -.742E-13 -.362E-13   0.135E-14 0.297E+01 -.271E-17   -.336E-12 -.230E-03 0.166E-11
 
 
 POSITION                                       TOTAL-FORCE (eV/Angst)
 -----------------------------------------------------------------------------------
      1.33007      1.31105      1.30539         0.000055     -0.000074     -0.000007
      6.58798      1.31105      1.31915         0.000055     -0.000074     -0.000007
      1.33007      6.56906      1.30539         0.000055     -0.000074     -0.000007
      6.58798      6.56906      1.31915         0.000055     -0.000074     -0.000007
      3.93465      3.94006      1.31106        -0.000055     -0.000074      0.000007
      9.19256      3.94006      1.32483        -0.000055     -0.000074      0.000007
      3.93465      9.19807      1.31106        -0.000055     -0.000074      0.000007
      9.19256      9.19807      1.32483        -0.000055     -0.000074      0.000007
      1.33832      3.92895      9.11283         0.000000     -0.000114      0.000000
      6.59623      3.92895      9.12660         0.000000     -0.000114      0.000000
      1.33832      9.18696      9.11283         0.000000     -0.000114      0.000000
      6.59623      9.18696      9.12660         0.000000     -0.000114      0.000000
      3.96728      1.32422      9.11972         0.000000      0.000092      0.000000
      9.22519      1.32422      9.13348         0.000000      0.000092      0.000000
      3.96728      6.58223      9.11972         0.000000      0.000092      0.000000
      9.22519      6.58223      9.13348         0.000000      0.000092      0.000000
      1.31932      1.31105      6.50955        -0.000055     -0.000074      0.000007
      6.57723      1.31105      6.52331        -0.000055     -0.000074      0.000007
      1.31932      6.56906      6.50955        -0.000055     -0.000074      0.000007
      6.57723      6.56906      6.52331        -0.000055     -0.000074      0.000007
      3.97265      3.94006      6.51764         0.000055     -0.000074     -0.000007
      9.23056      3.94006      6.53140         0.000055     -0.000074     -0.000007
      3.97265      9.19807      6.51764         0.000055     -0.000074     -0.000007
      9.23056      9.19807      6.53140         0.000055     -0.000074     -0.000007
      3.95365      1.29995      3.91435         0.000000     -0.000114      0.000000
      9.21156      1.29995      3.92811         0.000000     -0.000114      0.000000
      3.95365      6.55796      3.91435         0.000000     -0.000114      0.000000
      9.21156      6.55796      3.92811         0.000000     -0.000114      0.000000
      1.32470      3.95322      3.90747         0.000000      0.000092      0.000000
      6.58261      3.95322      3.92123         0.000000      0.000092      0.000000
      1.32470      9.21123      3.90747         0.000000      0.000092      0.000000
      6.58261      9.21123      3.92123         0.000000      0.000092      0.000000
     10.52838      0.00298      5.23288        -0.000212      0.000114     -0.000049
      5.27047      0.00298      5.21912        -0.000212      0.000114     -0.000049
     10.52838      5.26099      5.23288        -0.000212      0.000114     -0.000049
      5.27047      5.26099      5.21912        -0.000212      0.000114     -0.000049
      2.63683      0.00298      2.60958         0.000212      0.000114      0.000049
      7.89474      0.00298      2.62334         0.000212      0.000114      0.000049
      2.63683      5.26099      2.60958         0.000212      0.000114      0.000049
      7.89474      5.26099      2.62334         0.000212      0.000114      0.000049
      2.65515      2.63198     10.41760        -0.000212      0.000114     -0.000049
      7.91305      2.63198     10.43137        -0.000212      0.000114     -0.000049
      2.65515      7.88999     10.41760        -0.000212      0.000114     -0.000049
      7.91305      7.88999     10.43137        -0.000212      0.000114     -0.000049
      0.02150      2.63198      7.80806         0.000212      0.000114      0.000049
      5.27941      2.63198      7.82183         0.000212      0.000114      0.000049
      0.02150      7.88999      7.80806         0.000212      0.000114      0.000049
      5.27941      7.88999      7.82183         0.000212      0.000114      0.000049
     10.51529      0.00289      0.02758         0.000060     -0.000029     -0.000199
      5.25738      0.00289      0.01382         0.000060     -0.000029     -0.000199
     10.51529      5.26090      0.02758         0.000060     -0.000029     -0.000199
      5.25738      5.26090      0.01382         0.000060     -0.000029     -0.000199
      2.64992      0.00289      7.81488        -0.000060     -0.000029      0.000199
      7.90783      0.00289      7.82865        -0.000060     -0.000029      0.000199
      2.64992      5.26090      7.81488        -0.000060     -0.000029      0.000199
      7.90783      5.26090      7.82865        -0.000060     -0.000029      0.000199
      2.64206      2.63190      5.21230         0.000060     -0.000029     -0.000199
      7.89996      2.63190      5.22607         0.000060     -0.000029     -0.000199
      2.64206      7.88991      5.21230         0.000060     -0.000029     -0.000199
      7.89996      7.88991      5.22607         0.000060     -0.000029     -0.000199
      0.00734      2.63190      2.60263        -0.000060     -0.000029      0.000199
      5.26525      2.63190      2.61640        -0.000060     -0.000029      0.000199
      0.00734      7.88991      2.60263        -0.000060     -0.000029      0.000199
      5.26525      7.88991      2.61640        -0.000060     -0.000029      0.000199
 -----------------------------------------------------------------------------------
    total drift:                                0.000000     -0.001769      0.000110


--------------------------------------------------------------------------------------------------------



  FREE ENERGIE OF THE ION-ELECTRON SYSTEM (eV)
  ---------------------------------------------------
  free  energy   TOTEN  =      -328.12384263 eV

  energy  without entropy=     -328.12384263  energy(sigma->0) =     -328.12384263
 


--------------------------------------------------------------------------------------------------------


    POTLOK:  cpu time    0.1300: real time    0.1307


--------------------------------------------------------------------------------------------------------


 writing wavefunctions
     LOOP+:  cpu time13666.7199: real time13777.0826
    4ORBIT:  cpu time    0.0001: real time    0.0011
 


 total charge     
 
# of ion       s       p       d       tot
------------------------------------------
    1        1.313   2.410   0.000   3.724
    2        1.313   2.410   0.000   3.724
    3        1.313   2.410   0.000   3.724
    4        1.313   2.410   0.000   3.724
    5        1.313   2.410   0.000   3.724
    6        1.313   2.410   0.000   3.724
    7        1.313   2.410   0.000   3.724
    8        1.313   2.410   0.000   3.724
    9        1.314   2.410   0.000   3.723
   10        1.314   2.410   0.000   3.723
   11        1.314   2.410   0.000   3.723
   12        1.314   2.410   0.000   3.723
   13        1.313   2.411   0.000   3.724
   14        1.313   2.411   0.000   3.724
   15        1.313   2.411   0.000   3.724
   16        1.313   2.411   0.000   3.724
   17        1.313   2.410   0.000   3.724
   18        1.313   2.410   0.000   3.724
   19        1.313   2.410   0.000   3.724
   20        1.313   2.410   0.000   3.724
   21        1.313   2.410   0.000   3.724
   22        1.313   2.410   0.000   3.724
   23        1.313   2.410   0.000   3.724
   24        1.313   2.410   0.000   3.724
   25        1.314   2.410   0.000   3.723
   26        1.314   2.410   0.000   3.723
   27        1.314   2.410   0.000   3.723
   28        1.314   2.410   0.000   3.723
   29        1.313   2.411   0.000   3.724
   30        1.313   2.411   0.000   3.724
   31        1.313   2.411   0.000   3.724
   32        1.313   2.411   0.000   3.724
   33        0.260   6.202   8.917  15.378
   34        0.260   6.202   8.917  15.378
   35        0.260   6.202   8.917  15.378
   36        0.260   6.202   8.917  15.378
   37        0.260   6.202   8.917  15.378
   38        0.260   6.202   8.917  15.378
   39        0.260   6.202   8.917  15.378
   40        0.260   6.202   8.917  15.378
   41        0.260   6.202   8.917  15.378
   42        0.260   6.202   8.917  15.378
   43        0.260   6.202   8.917  15.378
   44        0.260   6.202   8.917  15.378
   45        0.260   6.202   8.917  15.378
   46        0.260   6.202   8.917  15.378
   47        0.260   6.202   8.917  15.378
   48        0.260   6.202   8.917  15.378
   49        0.350   6.351   5.820  12.521
   50        0.350   6.351   5.820  12.521
   51        0.350   6.351   5.820  12.521
   52        0.350   6.351   5.820  12.521
   53        0.350   6.351   5.820  12.521
   54        0.350   6.351   5.820  12.521
   55        0.350   6.351   5.820  12.521
   56        0.350   6.351   5.820  12.521
   57        0.350   6.351   5.820  12.521
   58        0.350   6.351   5.820  12.521
   59        0.350   6.351   5.820  12.521
   60        0.350   6.351   5.820  12.521
   61        0.350   6.351   5.820  12.521
   62        0.350   6.351   5.820  12.521
   63        0.350   6.351   5.820  12.521
   64        0.350   6.351   5.820  12.521
--------------------------------------------------
tot         51.790 277.975 235.777 565.542
 


 magnetization (x)
 
# of ion       s       p       d       tot
------------------------------------------
    1        0.000  -0.001   0.000  -0.001
    2        0.000  -0.001   0.000  -0.001
    3        0.000  -0.001   0.000  -0.001
    4        0.000  -0.001   0.000  -0.001
    5        0.000   0.001   0.000   0.001
    6        0.000   0.001   0.000   0.001
    7        0.000   0.001   0.000   0.001
    8        0.000   0.001   0.000   0.001
    9       -0.000   0.000   0.000   0.000
   10       -0.000   0.000   0.000   0.000
   11       -0.000   0.000   0.000   0.000
   12       -0.000   0.000   0.000   0.000
   13       -0.000   0.000   0.000   0.000
   14       -0.000   0.000   0.000   0.000
   15       -0.000   0.000   0.000   0.000
   16       -0.000   0.000   0.000   0.000
   17        0.000   0.001   0.000   0.001
   18        0.000   0.001   0.000   0.001
   19        0.000   0.001   0.000   0.001
   20        0.000   0.001   0.000   0.001
   21        0.000  -0.001   0.000  -0.001
   22        0.000  -0.001   0.000  -0.001
   23        0.000  -0.001   0.000  -0.001
   24        0.000  -0.001   0.000  -0.001
   25       -0.000   0.000   0.000   0.000
   26       -0.000   0.000   0.000   0.000
   27       -0.000   0.000   0.000   0.000
   28       -0.000   0.000   0.000   0.000
   29       -0.000   0.000   0.000   0.000
   30       -0.000   0.000   0.000   0.000
   31       -0.000   0.000   0.000   0.000
   32       -0.000   0.000   0.000   0.000
   33        0.000   0.000  -0.001   0.000
   34        0.000   0.000  -0.001   0.000
   35        0.000   0.000  -0.001   0.000
   36        0.000   0.000  -0.001   0.000
   37       -0.000  -0.000   0.001  -0.000
   38       -0.000  -0.000   0.001  -0.000
   39       -0.000  -0.000   0.001  -0.000
   40       -0.000  -0.000   0.001  -0.000
   41        0.000   0.000  -0.001   0.000
   42        0.000   0.000  -0.001   0.000
   43        0.000   0.000  -0.001   0.000
   44        0.000   0.000  -0.001   0.000
   45       -0.000  -0.000   0.001  -0.000
   46       -0.000  -0.000   0.001  -0.000
   47       -0.000  -0.000   0.001  -0.000
   48       -0.000  -0.000   0.001  -0.000
   49        0.020   0.054   3.671   3.745
   50        0.020   0.054   3.671   3.745
   51        0.020   0.054   3.671   3.745
   52        0.020   0.054   3.671   3.745
   53       -0.020  -0.054  -3.671  -3.745
   54       -0.020  -0.054  -3.671  -3.745
   55       -0.020  -0.054  -3.671  -3.745
   56       -0.020  -0.054  -3.671  -3.745
   57        0.020   0.054   3.671   3.745
   58        0.020   0.054   3.671   3.745
   59        0.020   0.054   3.671   3.745
   60        0.020   0.054   3.671   3.745
   61       -0.020  -0.054  -3.671  -3.745
   62       -0.020  -0.054  -3.671  -3.745
   63       -0.020  -0.054  -3.671  -3.745
   64       -0.020  -0.054  -3.671  -3.745
--------------------------------------------------
tot         -0.000   0.000   0.000   0.000
 
 BZINTS: Fermi energy:  4.989139;688.000000 electrons
         Band energy:***********;  BLOECHL correction:  0.000000

 total amount of memory used by VASP MPI-rank0   881832. kBytes
=======================================================================

   base      :      30000. kBytes
   nonl-proj :     680181. kBytes
   fftplans  :       4588. kBytes
   grid      :      69719. kBytes
   one-center:       1990. kBytes
   wavefun   :      95354. kBytes
 
  
  
 General timing and accounting informations for this job:
 ========================================================
  
                  Total CPU time used (sec):    13814.958
                            User time (sec):    13788.331
                          System time (sec):       26.627
                         Elapsed time (sec):    13930.078
  
                   Maximum memory used (kb):     1509488.
                   Average memory used (kb):           0.
  
                          Minor page faults:      1048849
                          Major page faults:        42481
                 Voluntary context switches:        53582
