 vasp.5.4.4.18Apr17-6-g9f103f2a35 (build Oct 30 2023 17:30:16) complex          
  
 executed on             LinuxIFC date 2024.06.21  01:01:24
 running on  256 total cores
 distrk:  each k-point on  256 cores,    1 groups
 distr:  one band on NCORES_PER_BAND=   1 cores,  256 groups


--------------------------------------------------------------------------------------------------------


 INCAR:
 POTCAR:    PAW_PBE S 06Sep2000                   
 POTCAR:     PAW_PBE Cu_pv 06Sep2000              
 POTCAR:     PAW_PBE Fe_pv 02Aug2007              

 ----------------------------------------------------------------------------- 
|                                                                             |
|           W    W    AA    RRRRR   N    N  II  N    N   GGGG   !!!           |
|           W    W   A  A   R    R  NN   N  II  NN   N  G    G  !!!           |
|           W    W  A    A  R    R  N N  N  II  N N  N  G       !!!           |
|           W WW W  AAAAAA  RRRRR   N  N N  II  N  N N  G  GGG   !            |
|           WW  WW  A    A  R   R   N   NN  II  N   NN  G    G                |
|           W    W  A    A  R    R  N    N  II  N    N   GGGG   !!!           |
|                                                                             |
|      For optimal performance we recommend to set                            |
|        NCORE= 4 - approx SQRT( number of cores)                             |
|      NCORE specifies how many cores store one orbital (NPAR=cpu/NCORE).     |
|      This setting can  greatly improve the performance of VASP for DFT.     |
|      The default,   NCORE=1            might be grossly inefficient         |
|      on modern multi-core architectures or massively parallel machines.     |
|      Do your own testing !!!!                                               |
|      Unfortunately you need to use the default for GW and RPA calculations. |
|      (for HF NCORE is supported but not extensively tested yet)             |
|                                                                             |
 ----------------------------------------------------------------------------- 

 POTCAR:    PAW_PBE S 06Sep2000                   
   SHA256 =  0fc7481fb0695f01bdc6462160264c5c84044ae9ec85a907d398b887a2bc3132 S/
   COPYR  = (c) Copyright 06Sep2000 Georg Kresse                                
   COPYR  = This file is part of the software VASP. Any use, copying, and all ot
   COPYR  = If you do not have a valid VASP license, you may not use, copy or di
   VRHFIN =S : s2p4                                                             
   LEXCH  = PE                                                                  
   EATOM  =   276.8230 eV,   20.3459 Ry                                         
                                                                                
   TITEL  = PAW_PBE S 06Sep2000                                                 
   LULTRA =        F    use ultrasoft PP ?                                      
   IUNSCR =        1    unscreen: 0-lin 1-nonlin 2-no                           
   RPACOR =    1.500    partial core radius                                     
   POMASS =   32.066; ZVAL   =    6.000    mass and valenz                      
   RCORE  =    1.900    outmost cutoff radius                                   
   RWIGS  =    2.200; RWIGS  =    1.164    wigner-seitz radius (au A)           
   ENMAX  =  258.689; ENMIN  =  194.016 eV                                      
   ICORE  =        2    local potential                                         
   LCOR   =        T    correct aug charges                                     
   LPAW   =        T    paw PP                                                  
   EAUG   =  335.092                                                            
   DEXC   =    0.000                                                            
   RMAX   =    1.942    core radius for proj-oper                               
   RAUG   =    1.300    factor for augmentation sphere                          
   RDEP   =    1.954    radius for radial grids                                 
   RDEPT  =    1.744    core radius for aug-charge                              
                                                                                
   Atomic configuration                                                         
    6 entries                                                                   
     n  l   j            E        occ.                                          
     1  0  0.50     -2405.8406   2.0000                                         
     2  0  0.50      -211.7007   2.0000                                         
     2  1  1.50      -156.4958   6.0000                                         
     3  0  0.50       -17.2562   2.0000                                         
     3  1  0.50        -7.0085   4.0000                                         
     3  2  1.50        -6.8029   0.0000                                         
   Description                                                                  
     l       E           TYP  RCUT    TYP  RCUT                                 
     0    -17.2561641     23  1.900                                             
     0    -15.8743224     23  1.900                                             
     1     -7.0085400     23  1.900                                             
     1     -2.7779785     23  1.900                                             
     2     -6.8029130     23  1.900                                             
  local pseudopotential read in
  partial core-charges read in
  partial kinetic energy density read in
  atomic valenz-charges read in
  non local Contribution for L=           0  read in
    real space projection operators read in
  non local Contribution for L=           0  read in
    real space projection operators read in
  non local Contribution for L=           1  read in
    real space projection operators read in
  non local Contribution for L=           1  read in
    real space projection operators read in
    PAW grid and wavefunctions read in
 
   number of l-projection  operators is LMAX  =           4
   number of lm-projection operators is LMMAX =           8
 
 POTCAR:     PAW_PBE Cu_pv 06Sep2000              
   SHA256 =  cb7b504e2ea725fe1f25c85a9ac77d4012ce94cd394135b722c4e25ec297f1cb Cu
   COPYR  = (c) Copyright 06Sep2000 Georg Kresse                                
   COPYR  = This file is part of the software VASP. Any use, copying, and all ot
   COPYR  = If you do not have a valid VASP license, you may not use, copy or di
   VRHFIN =Cu: d10 p1                                                           
   LEXCH  = PE                                                                  
   EATOM  =  4120.1201 eV,  302.8203 Ry                                         
                                                                                
   TITEL  = PAW_PBE Cu_pv 06Sep2000                                             
   LULTRA =        F    use ultrasoft PP ?                                      
   IUNSCR =        1    unscreen: 0-lin 1-nonlin 2-no                           
   RPACOR =    1.500    partial core radius                                     
   POMASS =   63.546; ZVAL   =   17.000    mass and valenz                      
   RCORE  =    2.000    outmost cutoff radius                                   
   RWIGS  =    2.000; RWIGS  =    1.058    wigner-seitz radius (au A)           
   ENMAX  =  368.648; ENMIN  =  276.486 eV                                      
   RCLOC  =    1.304    cutoff for local pot                                    
   LCOR   =        T    correct aug charges                                     
   LPAW   =        T    paw PP                                                  
   EAUG   =  758.233                                                            
   DEXC   =    0.000                                                            
   RMAX   =    2.046    core radius for proj-oper                               
   RAUG   =    1.300    factor for augmentation sphere                          
   RDEP   =    2.025    radius for radial grids                                 
   RDEPT  =    1.558    core radius for aug-charge                              
                                                                                
   Atomic configuration                                                         
    8 entries                                                                   
     n  l   j            E        occ.                                          
     1  0  0.50     -8850.2467   2.0000                                         
     2  0  0.50     -1062.3498   2.0000                                         
     2  1  1.50      -916.8226   6.0000                                         
     3  0  0.50      -114.6929   2.0000                                         
     3  1  1.50       -72.1325   6.0000                                         
     3  2  2.50        -5.0394  10.0000                                         
     4  0  0.50        -4.6097   1.0000                                         
     4  3  2.50        -1.3606   0.0000                                         
   Description                                                                  
     l       E           TYP  RCUT    TYP  RCUT                                 
     1    -72.1324777     23  1.700                                             
     1     -1.3605826     23  1.700                                             
     2     -5.0393776     23  2.000                                             
     2     -6.3999602     23  2.000                                             
     0     -4.6097062     23  1.800                                             
     0     14.1620818     23  1.800                                             
  local pseudopotential read in
  partial core-charges read in
  partial kinetic energy density read in
  atomic valenz-charges read in
  non local Contribution for L=           1  read in
    real space projection operators read in
  non local Contribution for L=           1  read in
    real space projection operators read in
  non local Contribution for L=           2  read in
    real space projection operators read in
  non local Contribution for L=           2  read in
    real space projection operators read in
  non local Contribution for L=           0  read in
    real space projection operators read in
  non local Contribution for L=           0  read in
    real space projection operators read in
    PAW grid and wavefunctions read in
 
   number of l-projection  operators is LMAX  =           6
   number of lm-projection operators is LMMAX =          18
 
 POTCAR:     PAW_PBE Fe_pv 02Aug2007              
   SHA256 =  5d22e414b1f82158bf2c7ecb8b97b28fd0923e48cadc1c3bf74d524558f5dd32 Fe
   COPYR  = (c) Copyright 02Aug2007 Georg Kresse                                
   COPYR  = This file is part of the software VASP. Any use, copying, and all ot
   COPYR  = If you do not have a valid VASP license, you may not use, copy or di
   VRHFIN =Fe:  3pd7s1                                                          
   LEXCH  = PE                                                                  
   EATOM  =  2457.4239 eV,  180.6156 Ry                                         
                                                                                
   TITEL  = PAW_PBE Fe_pv 02Aug2007                                             
   LULTRA =        F    use ultrasoft PP ?                                      
   IUNSCR =        1    unscreen: 0-lin 1-nonlin 2-no                           
   RPACOR =    1.750    partial core radius                                     
   POMASS =   55.847; ZVAL   =   14.000    mass and valenz                      
   RCORE  =    2.200    outmost cutoff radius                                   
   RWIGS  =    2.200; RWIGS  =    1.164    wigner-seitz radius (au A)           
   ENMAX  =  293.238; ENMIN  =  219.928 eV                                      
   ICORE  =        3    local potential                                         
   LCOR   =        T    correct aug charges                                     
   LPAW   =        T    paw PP                                                  
   EAUG   =  578.342                                                            
   DEXC   =    0.000                                                            
   RMAX   =    2.249    core radius for proj-oper                               
   RAUG   =    1.300    factor for augmentation sphere                          
   RDEP   =    2.296    radius for radial grids                                 
   RDEPT  =    1.766    core radius for aug-charge                              
                                                                                
   Atomic configuration                                                         
    8 entries                                                                   
     n  l   j            E        occ.                                          
     1  0  0.50     -6993.8440   2.0000                                         
     2  0  0.50      -814.6047   2.0000                                         
     2  1  1.50      -693.3689   6.0000                                         
     3  0  0.50       -89.4732   2.0000                                         
     3  1  1.50       -55.6373   6.0000                                         
     3  2  2.50        -3.8151   7.0000                                         
     4  0  0.50        -4.2551   1.0000                                         
     4  3  2.50        -1.3606   0.0000                                         
   Description                                                                  
     l       E           TYP  RCUT    TYP  RCUT                                 
     1    -55.6372668     23  2.000                                             
     1     -5.4423304     23  2.000                                             
     2     -3.8151096     23  2.200                                             
     2     -5.1756922     23  2.200                                             
     0     -4.2550951     23  2.200                                             
     0     27.2116520     23  2.200                                             
     3     -1.3605826     23  2.200                                             
  local pseudopotential read in
  partial core-charges read in
  partial kinetic energy density read in
  atomic valenz-charges read in
  non local Contribution for L=           1  read in
    real space projection operators read in
  non local Contribution for L=           1  read in
    real space projection operators read in
  non local Contribution for L=           2  read in
    real space projection operators read in
  non local Contribution for L=           2  read in
    real space projection operators read in
  non local Contribution for L=           0  read in
    real space projection operators read in
  non local Contribution for L=           0  read in
    real space projection operators read in
    PAW grid and wavefunctions read in
 
   number of l-projection  operators is LMAX  =           6
   number of lm-projection operators is LMMAX =          18
 

 ----------------------------------------------------------------------------- 
|                                                                             |
|  ADVICE TO THIS USER RUNNING 'VASP/VAMP'   (HEAR YOUR MASTER'S VOICE ...):  |
|                                                                             |
|      You have a (more or less) 'large supercell' and for larger cells       |
|      it might be more efficient to use real space projection opertators     |
|      So try LREAL= Auto  in the INCAR   file.                               |
|      Mind:          For very  accurate calculation you might also keep the  |
|      reciprocal projection scheme          (i.e. LREAL=.FALSE.)             |
|                                                                             |
 ----------------------------------------------------------------------------- 


 ----------------------------------------------------------------------------- 
|                                                                             |
|  ADVICE TO THIS USER RUNNING 'VASP/VAMP'   (HEAR YOUR MASTER'S VOICE ...):  |
|                                                                             |
|      You enforced a specific xc-type in the INCAR file,                     |
|      a different type was found on the POTCAR file                          |
|          I HOPE YOU KNOW, WHAT YOU ARE  DOING                               |
|                                                                             |
 ----------------------------------------------------------------------------- 

  PAW_PBE S 06Sep2000                   :
 energy of atom  1       EATOM= -276.8230
 kinetic energy error for atom=    0.0007 (will be added to EATOM!!)
   PAW_PBE Cu_pv 06Sep2000              :
 energy of atom  2       EATOM=-4120.1201
 kinetic energy error for atom=    0.0094 (will be added to EATOM!!)
   PAW_PBE Fe_pv 02Aug2007              :
 energy of atom  3       EATOM=-2457.4239
 kinetic energy error for atom=    0.0025 (will be added to EATOM!!)
 
 
 POSCAR: Fe16 Cu16 S32                           
  positions in direct lattice
  velocities in cartesian coordinates
 exchange correlation table for  LEXCH =       14
   RHO(1)=    0.500       N(1)  =     2000
   RHO(2)=  100.500       N(2)  =     4000
 


--------------------------------------------------------------------------------------------------------


 ion  position               nearest neighbor table
   1  0.126  0.126  0.120-  37 2.26  61 2.27  41 2.27  49 2.29
   2  0.626  0.126  0.120-  38 2.26  62 2.27  42 2.27  50 2.29
   3  0.126  0.626  0.120-  39 2.26  63 2.27  43 2.27  51 2.29
   4  0.626  0.626  0.120-  40 2.26  64 2.27  44 2.27  52 2.29
   5  0.374  0.374  0.120-  39 2.26  62 2.27  41 2.27  52 2.29
   6  0.874  0.374  0.120-  40 2.26  61 2.27  42 2.27  51 2.29
   7  0.374  0.874  0.120-  37 2.26  64 2.27  43 2.27  50 2.29
   8  0.874  0.874  0.120-  38 2.26  63 2.27  44 2.27  49 2.29
   9  0.124  0.374  0.870-  41 2.26  51 2.27  45 2.27  55 2.29
  10  0.624  0.374  0.870-  42 2.26  52 2.27  46 2.27  56 2.29
  11  0.124  0.874  0.870-  43 2.26  49 2.27  47 2.27  53 2.29
  12  0.624  0.874  0.870-  44 2.26  50 2.27  48 2.27  54 2.29
  13  0.376  0.126  0.870-  41 2.26  50 2.27  46 2.27  53 2.29
  14  0.876  0.126  0.870-  42 2.26  49 2.27  45 2.27  54 2.29
  15  0.376  0.626  0.870-  43 2.26  52 2.27  48 2.27  55 2.29
  16  0.876  0.626  0.870-  44 2.26  51 2.27  47 2.27  56 2.29
  17  0.124  0.124  0.620-  45 2.26  53 2.27  33 2.27  57 2.29
  18  0.624  0.124  0.620-  46 2.26  54 2.27  34 2.27  58 2.29
  19  0.124  0.624  0.620-  47 2.26  55 2.27  35 2.27  59 2.29
  20  0.624  0.624  0.620-  48 2.26  56 2.27  36 2.27  60 2.29
  21  0.376  0.376  0.620-  46 2.26  55 2.27  36 2.27  57 2.29
  22  0.876  0.376  0.620-  45 2.26  56 2.27  35 2.27  58 2.29
  23  0.376  0.876  0.620-  48 2.26  53 2.27  34 2.27  59 2.29
  24  0.876  0.876  0.620-  47 2.26  54 2.27  33 2.27  60 2.29
  25  0.374  0.124  0.370-  34 2.26  57 2.27  37 2.27  62 2.29
  26  0.874  0.124  0.370-  33 2.26  58 2.27  38 2.27  61 2.29
  27  0.374  0.624  0.370-  36 2.26  59 2.27  39 2.27  64 2.29
  28  0.874  0.624  0.370-  35 2.26  60 2.27  40 2.27  63 2.29
  29  0.126  0.376  0.370-  35 2.26  57 2.27  39 2.27  61 2.29
  30  0.626  0.376  0.370-  36 2.26  58 2.27  40 2.27  62 2.29
  31  0.126  0.876  0.370-  33 2.26  59 2.27  37 2.27  63 2.29
  32  0.626  0.876  0.370-  34 2.26  60 2.27  38 2.27  64 2.29
  33  0.000  0.000  0.504-  26 2.26  31 2.26  17 2.27  24 2.27
  34  0.500  0.000  0.504-  32 2.26  25 2.26  18 2.27  23 2.27
  35  0.000  0.500  0.504-  28 2.26  29 2.26  22 2.27  19 2.27
  36  0.500  0.500  0.504-  27 2.26  30 2.26  20 2.27  21 2.27
  37  0.250  0.000  0.254-   7 2.26   1 2.26  31 2.27  25 2.27
  38  0.750  0.000  0.254-   8 2.26   2 2.26  32 2.27  26 2.27
  39  0.250  0.500  0.254-   3 2.26   5 2.26  27 2.27  29 2.27
  40  0.750  0.500  0.254-   4 2.26   6 2.26  28 2.27  30 2.27
  41  0.250  0.250  0.004-  13 2.26   9 2.26   1 2.27   5 2.27
  42  0.750  0.250  0.004-  14 2.26  10 2.26   2 2.27   6 2.27
  43  0.250  0.750  0.004-  11 2.26  15 2.26   3 2.27   7 2.27
  44  0.750  0.750  0.004-  12 2.26  16 2.26   4 2.27   8 2.27
  45  0.000  0.250  0.754-  22 2.26  17 2.26   9 2.27  14 2.27
  46  0.500  0.250  0.754-  18 2.26  21 2.26  13 2.27  10 2.27
  47  0.000  0.750  0.754-  24 2.26  19 2.26  11 2.27  16 2.27
  48  0.500  0.750  0.754-  20 2.26  23 2.26  15 2.27  12 2.27
  49  0.000  0.000  0.005-  14 2.27  11 2.27   1 2.29   8 2.29
  50  0.500  0.000  0.005-  13 2.27  12 2.27   7 2.29   2 2.29
  51  0.000  0.500  0.005-   9 2.27  16 2.27   3 2.29   6 2.29
  52  0.500  0.500  0.005-  10 2.27  15 2.27   5 2.29   4 2.29
  53  0.250  0.000  0.755-  23 2.27  17 2.27  13 2.29  11 2.29
  54  0.750  0.000  0.755-  18 2.27  24 2.27  14 2.29  12 2.29
  55  0.250  0.500  0.755-  21 2.27  19 2.27   9 2.29  15 2.29
  56  0.750  0.500  0.755-  22 2.27  20 2.27  10 2.29  16 2.29
  57  0.250  0.250  0.505-  29 2.27  25 2.27  21 2.29  17 2.29
  58  0.750  0.250  0.505-  30 2.27  26 2.27  18 2.29  22 2.29
  59  0.250  0.750  0.505-  27 2.27  31 2.27  23 2.29  19 2.29
  60  0.750  0.750  0.505-  28 2.27  32 2.27  20 2.29  24 2.29
  61  0.000  0.250  0.255-   1 2.27   6 2.27  29 2.29  26 2.29
  62  0.500  0.250  0.255-   5 2.27   2 2.27  30 2.29  25 2.29
  63  0.000  0.750  0.255-   3 2.27   8 2.27  28 2.29  31 2.29
  64  0.500  0.750  0.255-   7 2.27   4 2.27  32 2.29  27 2.29
 
  LATTYP: Found a base centered orthorhombic cell.
 ALAT       =    14.1954019776
 B/A-ratio  =     1.0913084866
 C/A-ratio  =     0.7350570428
  
  Lattice vectors:
  
 A1 = (  10.4959270000,   0.4582620000,   0.0000000000)
 A2 = (  -0.4582620000, -10.4959270000,   0.0000000000)
 A3 = (   0.0000000000,   0.0000000000, -10.4344301984)


Analysis of symmetry for initial positions (statically):
=====================================================================
 Subroutine PRICEL returns following result:
 
  LATTYP: Found a face centered orthorhombic cell.
 ALAT       =     7.0977009888
 B/A-ratio  =     1.0913084866
 C/A-ratio  =     1.4701140855
  
  Lattice vectors:
  
 A1 = (  -2.7385472500,  -2.7385472500,   5.2172150992)
 A2 = (  -2.5094162500,   2.5094162500,   5.2172150992)
 A3 = (  -5.2479635000,  -0.2291310000,   0.0000000000)
 
   8 primitive cells build up your supercell.
 

 Routine SETGRP: Setting up the symmetry group for a 
 base centered orthorhombic supercell.


 Subroutine GETGRP returns: Found  4 space group operations
 (whereof  2 operations were pure point group operations)
 out of a pool of  8 trial point group operations.


The static configuration has the point symmetry C_2 .
 The point group associated with its full space group is C_2v.


Analysis of symmetry for dynamics (positions and initial velocities):
=====================================================================
 Subroutine PRICEL returns following result:
 
  LATTYP: Found a face centered orthorhombic cell.
 ALAT       =     7.0977009888
 B/A-ratio  =     1.0913084866
 C/A-ratio  =     1.4701140855
  
  Lattice vectors:
  
 A1 = (  -2.7385472500,  -2.7385472500,   5.2172150992)
 A2 = (  -2.5094162500,   2.5094162500,   5.2172150992)
 A3 = (  -5.2479635000,  -0.2291310000,   0.0000000000)
 
   8 primitive cells build up your supercell.
 

 Routine SETGRP: Setting up the symmetry group for a 
 base centered orthorhombic supercell.


 Subroutine GETGRP returns: Found  4 space group operations
 (whereof  2 operations were pure point group operations)
 out of a pool of  8 trial point group operations.


The dynamic configuration has the point symmetry C_2 .
 The point group associated with its full space group is C_2v.


Analysis of structural, dynamic, and magnetic symmetry:
=====================================================================
 Subroutine PRICEL returns following result:
 
  LATTYP: Found a face centered orthorhombic cell.
 ALAT       =     7.0977009888
 B/A-ratio  =     1.0913084866
 C/A-ratio  =     1.4701140855
  
  Lattice vectors:
  
 A1 = (  -2.7385472500,  -2.7385472500,   5.2172150992)
 A2 = (  -2.5094162500,   2.5094162500,   5.2172150992)
 A3 = (  -5.2479635000,  -0.2291310000,   0.0000000000)
 
   8 primitive cells build up your supercell.
 

 Routine SETGRP: Setting up the symmetry group for a 
 base centered orthorhombic supercell.


 Subroutine GETGRP returns: Found  4 space group operations
 (whereof  2 operations were pure point group operations)
 out of a pool of  8 trial point group operations.


The magnetic configuration has the point symmetry C_2 .
 The point group associated with its full space group is C_2v.


 Subroutine INISYM returns: Found  4 space group operations
 (whereof  2 operations are pure point group operations),
 and found     8 'primitive' translations

 
 
 KPOINTS: Automatic mesh                          

Automatic generation of k-mesh.
Space group operators:
 irot       det(A)        alpha          n_x          n_y          n_z        tau_x        tau_y        tau_z
    1     1.000000     0.000001     1.000000     0.000000     0.000000     0.000000     0.000000     0.000000
    2     1.000000   180.000000     0.000000     0.000000     1.000000     0.000000     0.000000     0.000000
    3    -1.000000   180.000000     0.707107     0.707107     0.000000    -0.750000     0.000000     0.750000
    4    -1.000000   180.000000     0.707107    -0.707107     0.000000    -0.750000     0.000000     0.750000
 
 Subroutine IBZKPT returns following result:
 ===========================================
 
 Found     21 irreducible k-points:
 
 Following reciprocal coordinates:
            Coordinates               Weight
  0.000000  0.000000  0.000000      1.000000
  0.250000  0.000000  0.000000      4.000000
  0.500000  0.000000  0.000000      2.000000
  0.250000  0.250000  0.000000      2.000000
  0.500000  0.250000  0.000000      4.000000
 -0.250000  0.250000  0.000000      2.000000
  0.500000  0.500000  0.000000      1.000000
  0.000000  0.000000  0.250000      2.000000
  0.250000  0.000000  0.250000      8.000000
  0.500000  0.000000  0.250000      4.000000
  0.250000  0.250000  0.250000      4.000000
  0.500000  0.250000  0.250000      8.000000
 -0.250000  0.250000  0.250000      4.000000
  0.500000  0.500000  0.250000      2.000000
  0.000000  0.000000  0.500000      1.000000
  0.250000  0.000000  0.500000      4.000000
  0.500000  0.000000  0.500000      2.000000
  0.250000  0.250000  0.500000      2.000000
  0.500000  0.250000  0.500000      4.000000
 -0.250000  0.250000  0.500000      2.000000
  0.500000  0.500000  0.500000      1.000000
 
 Following cartesian coordinates:
            Coordinates               Weight
  0.000000  0.000000  0.000000      1.000000
  0.023864 -0.001042  0.000000      4.000000
  0.047729 -0.002084  0.000000      2.000000
  0.022822  0.022822  0.000000      2.000000
  0.046687  0.021780  0.000000      4.000000
 -0.024906  0.024906  0.000000      2.000000
  0.045645  0.045645  0.000000      1.000000
  0.000000  0.000000  0.023959      2.000000
  0.023864 -0.001042  0.023959      8.000000
  0.047729 -0.002084  0.023959      4.000000
  0.022822  0.022822  0.023959      4.000000
  0.046687  0.021780  0.023959      8.000000
 -0.024906  0.024906  0.023959      4.000000
  0.045645  0.045645  0.023959      2.000000
  0.000000  0.000000  0.047918      1.000000
  0.023864 -0.001042  0.047918      4.000000
  0.047729 -0.002084  0.047918      2.000000
  0.022822  0.022822  0.047918      2.000000
  0.046687  0.021780  0.047918      4.000000
 -0.024906  0.024906  0.047918      2.000000
  0.045645  0.045645  0.047918      1.000000
 
 TETIRR: Found     96 inequivalent tetrahedra from      384
 
 Subroutine IBZKPT_HF returns following result:
 ==============================================
 
 Found     64 k-points in 1st BZ
 the following     64 k-points will be used (e.g. in the exchange kernel)
 Following reciprocal coordinates:   # in IRBZ
  0.000000  0.000000  0.000000    0.01562500   1 t-inv F
  0.250000  0.000000  0.000000    0.01562500   2 t-inv F
  0.500000  0.000000  0.000000    0.01562500   3 t-inv F
  0.250000  0.250000  0.000000    0.01562500   4 t-inv F
  0.500000  0.250000  0.000000    0.01562500   5 t-inv F
 -0.250000  0.250000  0.000000    0.01562500   6 t-inv F
  0.500000  0.500000  0.000000    0.01562500   7 t-inv F
  0.000000  0.000000  0.250000    0.01562500   8 t-inv F
  0.250000  0.000000  0.250000    0.01562500   9 t-inv F
  0.500000  0.000000  0.250000    0.01562500  10 t-inv F
  0.250000  0.250000  0.250000    0.01562500  11 t-inv F
  0.500000  0.250000  0.250000    0.01562500  12 t-inv F
 -0.250000  0.250000  0.250000    0.01562500  13 t-inv F
  0.500000  0.500000  0.250000    0.01562500  14 t-inv F
  0.000000  0.000000  0.500000    0.01562500  15 t-inv F
  0.250000  0.000000  0.500000    0.01562500  16 t-inv F
  0.500000  0.000000  0.500000    0.01562500  17 t-inv F
  0.250000  0.250000  0.500000    0.01562500  18 t-inv F
  0.500000  0.250000  0.500000    0.01562500  19 t-inv F
 -0.250000  0.250000  0.500000    0.01562500  20 t-inv F
  0.500000  0.500000  0.500000    0.01562500  21 t-inv F
 -0.250000 -0.000000  0.000000    0.01562500   2 t-inv F
 -0.000000 -0.250000  0.000000    0.01562500   2 t-inv F spinflp
  0.000000  0.250000  0.000000    0.01562500   2 t-inv F spinflp
 -0.000000 -0.500000  0.000000    0.01562500   3 t-inv F spinflp
 -0.250000 -0.250000  0.000000    0.01562500   4 t-inv F
 -0.500000 -0.250000  0.000000    0.01562500   5 t-inv F
 -0.250000 -0.500000  0.000000    0.01562500   5 t-inv F spinflp
  0.250000  0.500000  0.000000    0.01562500   5 t-inv F spinflp
  0.250000 -0.250000  0.000000    0.01562500   6 t-inv F
 -0.250000 -0.000000  0.250000    0.01562500   9 t-inv F
 -0.000000 -0.250000  0.250000    0.01562500   9 t-inv F spinflp
  0.000000  0.250000  0.250000    0.01562500   9 t-inv F spinflp
 -0.000000 -0.500000  0.250000    0.01562500  10 t-inv F spinflp
 -0.250000 -0.250000  0.250000    0.01562500  11 t-inv F
 -0.500000 -0.250000  0.250000    0.01562500  12 t-inv F
 -0.250000 -0.500000  0.250000    0.01562500  12 t-inv F spinflp
  0.250000  0.500000  0.250000    0.01562500  12 t-inv F spinflp
  0.250000 -0.250000  0.250000    0.01562500  13 t-inv F
 -0.250000 -0.000000  0.500000    0.01562500  16 t-inv F
 -0.000000 -0.250000  0.500000    0.01562500  16 t-inv F spinflp
  0.000000  0.250000  0.500000    0.01562500  16 t-inv F spinflp
 -0.000000 -0.500000  0.500000    0.01562500  17 t-inv F spinflp
 -0.250000 -0.250000  0.500000    0.01562500  18 t-inv F
 -0.500000 -0.250000  0.500000    0.01562500  19 t-inv F
 -0.250000 -0.500000  0.500000    0.01562500  19 t-inv F spinflp
  0.250000  0.500000  0.500000    0.01562500  19 t-inv F spinflp
  0.250000 -0.250000  0.500000    0.01562500  20 t-inv F
  0.000000  0.000000 -0.250000    0.01562500   8 t-inv T
 -0.250000 -0.000000 -0.250000    0.01562500   9 t-inv T
  0.250000  0.000000 -0.250000    0.01562500   9 t-inv T
  0.000000  0.250000 -0.250000    0.01562500   9 t-inv T spinflp
 -0.000000 -0.250000 -0.250000    0.01562500   9 t-inv T spinflp
 -0.500000 -0.000000 -0.250000    0.01562500  10 t-inv T
  0.000000  0.500000 -0.250000    0.01562500  10 t-inv T spinflp
 -0.250000 -0.250000 -0.250000    0.01562500  11 t-inv T
  0.250000  0.250000 -0.250000    0.01562500  11 t-inv T
 -0.500000 -0.250000 -0.250000    0.01562500  12 t-inv T
  0.500000  0.250000 -0.250000    0.01562500  12 t-inv T
  0.250000  0.500000 -0.250000    0.01562500  12 t-inv T spinflp
 -0.250000 -0.500000 -0.250000    0.01562500  12 t-inv T spinflp
  0.250000 -0.250000 -0.250000    0.01562500  13 t-inv T
 -0.250000  0.250000 -0.250000    0.01562500  13 t-inv T
 -0.500000 -0.500000 -0.250000    0.01562500  14 t-inv T


--------------------------------------------------------------------------------------------------------




 Dimension of arrays:
   k-points           NKPTS =     21   k-points in BZ     NKDIM =     21   number of bands    NBANDS=    512
   number of dos      NEDOS =    301   number of ions     NIONS =     64
   non local maximal  LDIM  =      6   non local SUM 2l+1 LMDIM =     18
   total plane-waves  NPLWV = 829440
   max r-space proj   IRMAX =      1   max aug-charges    IRDMAX=  22973
   dimension x,y,z NGX =    96 NGY =   96 NGZ =   90
   dimension x,y,z NGXF=   192 NGYF=  192 NGZF=  180
   support grid    NGXF=   192 NGYF=  192 NGZF=  180
   ions per type =              32  16  16
   NGX,Y,Z   is equivalent  to a cutoff of  15.19, 15.19, 14.34 a.u.
   NGXF,Y,Z  is equivalent  to a cutoff of  30.38, 30.38, 28.68 a.u.

 SYSTEM =  CuFeS2                                  
 POSCAR =  Fe16 Cu16 S32                           

 Startparameter for this run:
   NWRITE =      2    write-flag & timer
   PREC   = accura    normal or accurate (medium, high low for compatibility)
   ISTART =      1    job   : 0-new  1-cont  2-samecut
   ICHARG =      1    charge: 1-file 2-atom 10-const
   ISPIN  =      2    spin polarized calculation?
   LNONCOLLINEAR =      F non collinear calculations
   LSORBIT =      F    spin-orbit coupling
   INIWAV =      1    electr: 0-lowe 1-rand  2-diag
   LASPH  =      F    aspherical Exc in radial PAW
   METAGGA=      F    non-selfconsistent MetaGGA calc.

 Electronic Relaxation 1
   ENCUT  =  700.0 eV  51.45 Ry    7.17 a.u.  22.66 22.66 22.51*2*pi/ulx,y,z
   ENINI  =  700.0     initial cutoff
   ENAUG  =  758.2 eV  augmentation charge cutoff
   NELM   =    500;   NELMIN=  2; NELMDL=  0     # of ELM steps 
   EDIFF  = 0.1E-07   stopping-criterion for ELM
   LREAL  =      F    real-space projection
   NLSPLINE    = F    spline interpolate recip. space projectors
   LCOMPAT=      F    compatible to vasp.4.4
   GGA_COMPAT  = T    GGA compatible to vasp.4.4-vasp.4.6
   LMAXPAW     = -100 max onsite density
   LMAXMIX     =    4 max onsite mixed and CHGCAR
   VOSKOWN=      0    Vosko Wilk Nusair interpolation
   ROPT   =    0.00000   0.00000   0.00000
 Ionic relaxation
   EDIFFG = -.1E-04   stopping-criterion for IOM
   NSW    =      0    number of steps for IOM
   NBLOCK =      1;   KBLOCK =      1    inner block; outer block 
   IBRION =     -1    ionic relax: 0-MD 1-quasi-New 2-CG
   NFREE  =      0    steps in history (QN), initial steepest desc. (CG)
   ISIF   =      2    stress and relaxation
   IWAVPR =     10    prediction:  0-non 1-charg 2-wave 3-comb
   ISYM   =      2    0-nonsym 1-usesym 2-fastsym
   LCORR  =      T    Harris-Foulkes like correction to forces

   POTIM  = 0.5000    time-step for ionic-motion
   TEIN   =    0.0    initial temperature
   TEBEG  =    0.0;   TEEND  =   0.0 temperature during run
   SMASS  =  -3.00    Nose mass-parameter (am)
   estimated Nose-frequenzy (Omega)   =  0.10E-29 period in steps =****** mass=  -0.252E-26a.u.
   SCALEE = 1.0000    scale energy and forces
   NPACO  =    256;   APACO  = 16.0  distance and # of slots for P.C.
   PSTRESS=    0.0 pullay stress

  Mass of Ions in am
   POMASS =  32.07 63.55 55.85
  Ionic Valenz
   ZVAL   =   6.00 17.00 14.00
  Atomic Wigner-Seitz radii
   RWIGS  =  -1.00 -1.00 -1.00
  virtual crystal weights 
   VCA    =   1.00  1.00  1.00
   NELECT =     688.0000    total number of electrons
   NUPDOWN=      -1.0000    fix difference up-down

 DOS related values:
   EMIN   =  10.00;   EMAX   =-10.00  energy-range for DOS
   EFERMI =   0.00
   ISMEAR =    -5;   SIGMA  =   0.03  broadening in eV -4-tet -1-fermi 0-gaus

 Electronic relaxation 2 (details)
   IALGO  =     38    algorithm
   LDIAG  =      T    sub-space diagonalisation (order eigenvalues)
   LSUBROT=      F    optimize rotation matrix (better conditioning)
   TURBO    =      0    0=normal 1=particle mesh
   IRESTART =      0    0=no restart 2=restart with 2 vectors
   NREBOOT  =      0    no. of reboots
   NMIN     =      0    reboot dimension
   EREF     =   0.00    reference energy to select bands
   IMIX   =      4    mixing-type and parameters
     AMIX     =   0.40;   BMIX     =  1.00
     AMIX_MAG =   1.60;   BMIX_MAG =  1.00
     AMIN     =   0.10
     WC   =   100.;   INIMIX=   1;  MIXPRE=   1;  MAXMIX= -45

 Intra band minimization:
   WEIMIN = 0.0000     energy-eigenvalue tresh-hold
   EBREAK =  0.49E-11  absolut break condition
   DEPER  =   0.30     relativ break condition  

   TIME   =   0.40     timestep for ELM

  volume/ion in A,a.u.               =      17.93       120.98
  Fermi-wavevector in a.u.,A,eV,Ry     =   1.380523  2.608811 25.930591  1.905845
  Thomas-Fermi vector in A             =   2.505392
 
 Write flags
   LWAVE        =      T    write WAVECAR
   LDOWNSAMPLE  =      F    k-point downsampling of WAVECAR
   LCHARG       =      T    write CHGCAR
   LVTOT        =      F    write LOCPOT, total local potential
   LVHAR        =      F    write LOCPOT, Hartree potential only
   LELF         =      F    write electronic localiz. function (ELF)
   LORBIT       =     11    0 simple, 1 ext, 2 COOP (PROOUT), +10 PAW based schemes


 Dipole corrections
   LMONO  =      F    monopole corrections only (constant potential shift)
   LDIPOL =      F    correct potential (dipole corrections)
   IDIPOL =      0    1-x, 2-y, 3-z, 4-all directions 
   EPSILON=  1.0000000 bulk dielectric constant

 LDA+U is selected, type is set to LDAUTYPE =  2
   angular momentum for each species LDAUL =     2    2    2
   U (eV)           for each species LDAUU =   0.0  0.1  4.7
   J (eV)           for each species LDAUJ =   0.0  0.0  0.0
 Exchange correlation treatment:
   GGA     =    PS    GGA type
   LEXCH   =    14    internal setting for exchange type
   VOSKOWN=      0    Vosko Wilk Nusair interpolation
   LHFCALC =     F    Hartree Fock is set to
   LHFONE  =     F    Hartree Fock one center treatment
   AEXX    =    0.0000 exact exchange contribution

 Linear response parameters
   LEPSILON=     F    determine dielectric tensor
   LRPA    =     F    only Hartree local field effects (RPA)
   LNABLA  =     F    use nabla operator in PAW spheres
   LVEL    =     F    velocity operator in full k-point grid
   LINTERFAST=   F  fast interpolation
   KINTER  =     0    interpolate to denser k-point grid
   CSHIFT  =0.1000    complex shift for real part using Kramers Kronig
   OMEGAMAX=  -1.0    maximum frequency
   DEG_THRESHOLD= 0.2000000E-02 threshold for treating states as degnerate
   RTIME   =   -0.100 relaxation time in fs
  (WPLASMAI=    0.000 imaginary part of plasma frequency in eV, 0.658/RTIME)
   DFIELD  = 0.0000000 0.0000000 0.0000000 field for delta impulse in time
 
 Orbital magnetization related:
   ORBITALMAG=     F  switch on orbital magnetization
   LCHIMAG   =     F  perturbation theory with respect to B field
   DQ        =  0.001000  dq finite difference perturbation B field
   LLRAUG    =     F  two centre corrections for induced B field

 PEAD related settings:
   LPEAD      =     T    switch on PEAD
   IPEAD      =     4    finite difference order for dpsi/dk
   LCALCPOL   =     T    calculate macroscopic polarization
   LCALCEPS   =     F    calculate dielectric tensor
   EFIELD_PEAD=    0.0000    0.0000    0.0000
   SKIP_EDOTP =     F
   LRPA       =     F
   SKIP_SCF   =     F


--------------------------------------------------------------------------------------------------------


 Static calculation
 charge density and potential will be updated during run
 spin polarized calculation
 Variant of blocked Davidson
 Davidson routine will perform the subspace rotation
 perform sub-space diagonalisation
    after iterative eigenvector-optimisation
 modified Broyden-mixing scheme, WC =      100.0
 initial mixing is a Kerker type mixing with AMIX =  0.4000 and BMIX =      1.0000
 Hartree-type preconditioning will be used
 using additional bands          168
 reciprocal scheme for non local part
 use partial core corrections
 calculate Harris-corrections to forces 
   (improved forces if not selfconsistent)
 use gradient corrections 
 use of overlap-Matrix (Vanderbilt PP)
 Fermi weights with tetrahedron method with Bloechl corrections


--------------------------------------------------------------------------------------------------------


  energy-cutoff  :      700.00
  volume of cell :     1147.31
      direct lattice vectors                 reciprocal lattice vectors
    10.495927000  0.458262000  0.000000000     0.095457020 -0.004167743  0.000000000
     0.458262000 10.495927000  0.000000000    -0.004167743  0.095457020  0.000000000
     0.000000000  0.000000000 10.434430198     0.000000000  0.000000000  0.095836570

  length of vectors
    10.505926311 10.505926311 10.434430198     0.095547961  0.095547961  0.095836570


 
 old parameters found on file WAVECAR:
  energy-cutoff  :      700.00
  volume of cell :     1147.34
      direct lattice vectors                 reciprocal lattice vectors
    10.495927000  0.458262000  0.000000000     0.095457020 -0.004167743  0.000000000
     0.458262000 10.495927000  0.000000000    -0.004167743  0.095457020  0.000000000
     0.000000000  0.000000000 10.434653533     0.000000000  0.000000000  0.095834519

  length of vectors

 
 k-points in units of 2pi/SCALE and weight: Automatic mesh                          
   0.00000000  0.00000000  0.00000000       0.016
   0.02386426 -0.00104194  0.00000000       0.062
   0.04772851 -0.00208387  0.00000000       0.031
   0.02282232  0.02282232  0.00000000       0.031
   0.04668657  0.02178038  0.00000000       0.062
  -0.02490619  0.02490619  0.00000000       0.031
   0.04564464  0.04564464  0.00000000       0.016
   0.00000000  0.00000000  0.02395914       0.031
   0.02386426 -0.00104194  0.02395914       0.125
   0.04772851 -0.00208387  0.02395914       0.062
   0.02282232  0.02282232  0.02395914       0.062
   0.04668657  0.02178038  0.02395914       0.125
  -0.02490619  0.02490619  0.02395914       0.062
   0.04564464  0.04564464  0.02395914       0.031
   0.00000000  0.00000000  0.04791828       0.016
   0.02386426 -0.00104194  0.04791828       0.062
   0.04772851 -0.00208387  0.04791828       0.031
   0.02282232  0.02282232  0.04791828       0.031
   0.04668657  0.02178038  0.04791828       0.062
  -0.02490619  0.02490619  0.04791828       0.031
   0.04564464  0.04564464  0.04791828       0.016
 
 k-points in reciprocal lattice and weights: Automatic mesh                          
   0.00000000  0.00000000  0.00000000       0.016
   0.25000000  0.00000000  0.00000000       0.062
   0.50000000  0.00000000  0.00000000       0.031
   0.25000000  0.25000000  0.00000000       0.031
   0.50000000  0.25000000  0.00000000       0.062
  -0.25000000  0.25000000  0.00000000       0.031
   0.50000000  0.50000000  0.00000000       0.016
   0.00000000  0.00000000  0.25000000       0.031
   0.25000000  0.00000000  0.25000000       0.125
   0.50000000  0.00000000  0.25000000       0.062
   0.25000000  0.25000000  0.25000000       0.062
   0.50000000  0.25000000  0.25000000       0.125
  -0.25000000  0.25000000  0.25000000       0.062
   0.50000000  0.50000000  0.25000000       0.031
   0.00000000  0.00000000  0.50000000       0.016
   0.25000000  0.00000000  0.50000000       0.062
   0.50000000  0.00000000  0.50000000       0.031
   0.25000000  0.25000000  0.50000000       0.031
   0.50000000  0.25000000  0.50000000       0.062
  -0.25000000  0.25000000  0.50000000       0.031
   0.50000000  0.50000000  0.50000000       0.016
 
 position of ions in fractional coordinates (direct lattice) 
   0.12610311  0.12550725  0.12016535
   0.62610311  0.12550725  0.12016535
   0.12610311  0.62550725  0.12016535
   0.62610311  0.62550725  0.12016535
   0.37389689  0.37449275  0.12016535
   0.87389689  0.37449275  0.12016535
   0.37389689  0.87449275  0.12016535
   0.87389689  0.87449275  0.12016535
   0.12449275  0.37389689  0.87016535
   0.62449275  0.37389689  0.87016535
   0.12449275  0.87389689  0.87016535
   0.62449275  0.87389689  0.87016535
   0.37550725  0.12610311  0.87016535
   0.87550725  0.12610311  0.87016535
   0.37550725  0.62610311  0.87016535
   0.87550725  0.62610311  0.87016535
   0.12389689  0.12449275  0.62016535
   0.62389689  0.12449275  0.62016535
   0.12389689  0.62449275  0.62016535
   0.62389689  0.62449275  0.62016535
   0.37610311  0.37550725  0.62016535
   0.87610311  0.37550725  0.62016535
   0.37610311  0.87550725  0.62016535
   0.87610311  0.87550725  0.62016535
   0.37449275  0.12389689  0.37016535
   0.87449275  0.12389689  0.37016535
   0.37449275  0.62389689  0.37016535
   0.87449275  0.62389689  0.37016535
   0.12550725  0.37610311  0.37016535
   0.62550725  0.37610311  0.37016535
   0.12550725  0.87610311  0.37016535
   0.62550725  0.87610311  0.37016535
   0.00000000  0.00000000  0.50419404
   0.50000000  0.00000000  0.50419404
   0.00000000  0.50000000  0.50419404
   0.50000000  0.50000000  0.50419404
   0.25000000  0.00000000  0.25419404
   0.75000000  0.00000000  0.25419404
   0.25000000  0.50000000  0.25419404
   0.75000000  0.50000000  0.25419404
   0.25000000  0.25000000  0.00419404
   0.75000000  0.25000000  0.00419404
   0.25000000  0.75000000  0.00419404
   0.75000000  0.75000000  0.00419404
   0.00000000  0.25000000  0.75419404
   0.50000000  0.25000000  0.75419404
   0.00000000  0.75000000  0.75419404
   0.50000000  0.75000000  0.75419404
   0.00000000  0.00000000  0.00547525
   0.50000000  0.00000000  0.00547525
   0.00000000  0.50000000  0.00547525
   0.50000000  0.50000000  0.00547525
   0.25000000  0.00000000  0.75547525
   0.75000000  0.00000000  0.75547525
   0.25000000  0.50000000  0.75547525
   0.75000000  0.50000000  0.75547525
   0.25000000  0.25000000  0.50547525
   0.75000000  0.25000000  0.50547525
   0.25000000  0.75000000  0.50547525
   0.75000000  0.75000000  0.50547525
   0.00000000  0.25000000  0.25547525
   0.50000000  0.25000000  0.25547525
   0.00000000  0.75000000  0.25547525
   0.50000000  0.75000000  0.25547525
 
 position of ions in cartesian coordinates  (Angst):
   1.38108420  1.37510323  1.25385697
   6.62904770  1.60423423  1.25385697
   1.61021520  6.62306673  1.25385697
   6.85817870  6.85219773  1.25385697
   4.09601030  4.10199127  1.25385697
   9.34397380  4.33112227  1.25385697
   4.32514130  9.34995477  1.25385697
   9.57310480  9.57908577  1.25385697
   1.47800952  3.98144480  9.07967962
   6.72597302  4.21057580  9.07967962
   1.70714052  9.22940830  9.07967962
   6.95510402  9.45853930  9.07967962
   3.99908498  1.49564970  9.07967962
   9.24704848  1.72478070  9.07967962
   4.22821598  6.74361320  9.07967962
   9.47617948  6.97274420  9.07967962
   1.35746305  1.36344402  6.47107207
   6.60542655  1.59257502  6.47107207
   1.58659405  6.61140752  6.47107207
   6.83455755  6.84053852  6.47107207
   4.11963145  4.11365048  6.47107207
   9.36759495  4.34278148  6.47107207
   4.34876245  9.36161398  6.47107207
   9.59672595  9.59074498  6.47107207
   3.98742577  1.47202855  3.86246452
   9.23538927  1.70115955  3.86246452
   4.21655677  6.71999205  3.86246452
   9.46452027  6.94912305  3.86246452
   1.48966873  4.00506595  3.86246452
   6.73763223  4.23419695  3.86246452
   1.71879973  9.25302945  3.86246452
   6.96676323  9.48216045  3.86246452
   0.00000000  0.00000000  5.26097757
   5.24796350  0.22913100  5.26097757
   0.22913100  5.24796350  5.26097757
   5.47709450  5.47709450  5.26097757
   2.62398175  0.11456550  2.65237002
   7.87194525  0.34369650  2.65237002
   2.85311275  5.36252900  2.65237002
   8.10107625  5.59166000  2.65237002
   2.73854725  2.73854725  0.04376247
   7.98651075  2.96767825  0.04376247
   2.96767825  7.98651075  0.04376247
   8.21564175  8.21564175  0.04376247
   0.11456550  2.62398175  7.86958512
   5.36252900  2.85311275  7.86958512
   0.34369650  7.87194525  7.86958512
   5.59166000  8.10107625  7.86958512
   0.00000000  0.00000000  0.05713115
   5.24796350  0.22913100  0.05713115
   0.22913100  5.24796350  0.05713115
   5.47709450  5.47709450  0.05713115
   2.62398175  0.11456550  7.88295379
   7.87194525  0.34369650  7.88295379
   2.85311275  5.36252900  7.88295379
   8.10107625  5.59166000  7.88295379
   2.73854725  2.73854725  5.27434624
   7.98651075  2.96767825  5.27434624
   2.96767825  7.98651075  5.27434624
   8.21564175  8.21564175  5.27434624
   0.11456550  2.62398175  2.66573870
   5.36252900  2.85311275  2.66573870
   0.34369650  7.87194525  2.66573870
   5.59166000  8.10107625  2.66573870
 


--------------------------------------------------------------------------------------------------------


 k-point  1 :   0.0000 0.0000 0.0000  plane waves:   48251
 k-point  2 :   0.2500 0.0000 0.0000  plane waves:   48267
 k-point  3 :   0.5000 0.0000 0.0000  plane waves:   48264
 k-point  4 :   0.2500 0.2500 0.0000  plane waves:   48267
 k-point  5 :   0.5000 0.2500 0.0000  plane waves:   48278
 k-point  6 :  -0.2500 0.2500 0.0000  plane waves:   48267
 k-point  7 :   0.5000 0.5000 0.0000  plane waves:   48260
 k-point  8 :   0.0000 0.0000 0.2500  plane waves:   48257
 k-point  9 :   0.2500 0.0000 0.2500  plane waves:   48263
 k-point 10 :   0.5000 0.0000 0.2500  plane waves:   48238
 k-point 11 :   0.2500 0.2500 0.2500  plane waves:   48234
 k-point 12 :   0.5000 0.2500 0.2500  plane waves:   48254
 k-point 13 :  -0.2500 0.2500 0.2500  plane waves:   48257
 k-point 14 :   0.5000 0.5000 0.2500  plane waves:   48260
 k-point 15 :   0.0000 0.0000 0.5000  plane waves:   48270
 k-point 16 :   0.2500 0.0000 0.5000  plane waves:   48254
 k-point 17 :   0.5000 0.0000 0.5000  plane waves:   48220
 k-point 18 :   0.2500 0.2500 0.5000  plane waves:   48270
 k-point 19 :   0.5000 0.2500 0.5000  plane waves:   48210
 k-point 20 :  -0.2500 0.2500 0.5000  plane waves:   48198
 k-point 21 :   0.5000 0.5000 0.5000  plane waves:   48148

 maximum and minimum number of plane-waves per node :     48278    48148

 maximum number of plane-waves:     48278
 maximum index in each direction: 
   IXMAX=   22   IYMAX=   22   IZMAX=   22
   IXMIN=  -23   IYMIN=  -23   IZMIN=  -23


 serial   3D FFT for wavefunctions
 parallel 3D FFT for charge:
    minimum data exchange during FFTs selected (reduces bandwidth)


 total amount of memory used by VASP MPI-rank0   661185. kBytes
=======================================================================

   base      :      30000. kBytes
   nonl-proj :     488484. kBytes
   fftplans  :       4588. kBytes
   grid      :      69719. kBytes
   one-center:       1990. kBytes
   wavefun   :      66404. kBytes
 
     INWAV:  cpu time   41.3189: real time   41.5497
 Broyden mixing: mesh for mixing (old mesh)
   NGX = 45   NGY = 45   NGZ = 45
  (NGX  =192   NGY  =192   NGZ  =180)
  gives a total of  91125 points

 initial charge density was supplied:
 number of electron     688.0000404 magnetization       0.0000000
 keeping initial charge density in first step


--------------------------------------------------------------------------------------------------------


 Maximum index for augmentation-charges          897 (set IRDMAX)


--------------------------------------------------------------------------------------------------------


 First call to EWALD:  gamma=   0.169
 Maximum number of real-space cells 3x 3x 3
 Maximum number of reciprocal cells 3x 3x 3

    FEWALD:  cpu time    0.0026: real time    0.0026


--------------------------------------- Iteration      1(   1)  ---------------------------------------


    POTLOK:  cpu time    0.3649: real time    0.3809
    SETDIJ:  cpu time    0.0153: real time    0.0155
     EDDAV:  cpu time  320.0897: real time  322.6206
 BZINTS: Fermi energy:  5.125544;688.000000 electrons
         Band energy:***********;  BLOECHL correction:  0.000000
       DOS:  cpu time    0.0260: real time    0.0261
    CHARGE:  cpu time    2.9528: real time    2.9742
    MIXING:  cpu time    0.0026: real time    0.0027
    --------------------------------------------
      LOOP:  cpu time  323.4513: real time  326.0200

 eigenvalue-minimisations  : 53248
 total energy-change (2. order) :-0.3273134E+03  (-0.1093479E-06)
 number of electron     688.0000404 magnetization       0.0000000
 augmentation part      282.2354678 magnetization       0.0000000

 Broyden mixing:
  rms(total) = 0.36532E-03    rms(broyden)= 0.36531E-03
  rms(prec ) = 0.44100E-03
  weight for this iteration     100.00

 Free energy of the ion-electron system (eV)
  ---------------------------------------------------
  alpha Z        PSCENC =      2363.04487146
  Ewald energy   TEWEN  =    -62564.46512550
  -Hartree energ DENC   =    -42890.63281311
  -exchange      EXHF   =         0.00000000
  -V(xc)+E(xc)   XCENC  =      3286.46824567
  PAW double counting   =    112213.89488288  -115906.84054458
  entropy T*S    EENTRO =         0.00000000
  eigenvalues    EBANDS =    -10848.84800668
  atomic energy  EATOM  =    114020.06510763
  Solvation  Ediel_sol  =         0.00000000
  ---------------------------------------------------
  free energy    TOTEN  =      -327.31338223 eV

  energy without entropy =     -327.31338223  energy(sigma->0) =     -327.31338223


--------------------------------------------------------------------------------------------------------




--------------------------------------- Iteration      1(   2)  ---------------------------------------


    POTLOK:  cpu time    0.1502: real time    0.1536
    SETDIJ:  cpu time    0.0132: real time    0.0132
     EDDAV:  cpu time  317.9700: real time  320.2782
 BZINTS: Fermi energy:  4.998575;688.000000 electrons
         Band energy:***********;  BLOECHL correction:  0.000000
       DOS:  cpu time    0.0201: real time    0.0201
    CHARGE:  cpu time    2.9545: real time    2.9750
    MIXING:  cpu time    0.0019: real time    0.0143
    --------------------------------------------
      LOOP:  cpu time  321.1099: real time  323.4544

 eigenvalue-minimisations  : 52736
 total energy-change (2. order) : 0.2434535E-06  (-0.1038567E-06)
 number of electron     688.0000404 magnetization       0.0000000
 augmentation part      282.2353910 magnetization       0.0000000

 Broyden mixing:
  rms(total) = 0.36748E-03    rms(broyden)= 0.36748E-03
  rms(prec ) = 0.43290E-03
  weight for this iteration     100.00

 eigenvalues of (default mixing * dielectric matrix)
  average eigenvalue GAMMA=   0.4146
  0.4146

 Free energy of the ion-electron system (eV)
  ---------------------------------------------------
  alpha Z        PSCENC =      2363.04487146
  Ewald energy   TEWEN  =    -62564.46512550
  -Hartree energ DENC   =    -42890.62345211
  -exchange      EXHF   =         0.00000000
  -V(xc)+E(xc)   XCENC  =      3286.46788468
  PAW double counting   =    112213.85738107  -115906.80245600
  entropy T*S    EENTRO =         0.00000000
  eigenvalues    EBANDS =    -10848.85759321
  atomic energy  EATOM  =    114020.06510763
  Solvation  Ediel_sol  =         0.00000000
  ---------------------------------------------------
  free energy    TOTEN  =      -327.31338199 eV

  energy without entropy =     -327.31338199  energy(sigma->0) =     -327.31338199


--------------------------------------------------------------------------------------------------------




--------------------------------------- Iteration      1(   3)  ---------------------------------------


    POTLOK:  cpu time    0.1524: real time    0.1547
    SETDIJ:  cpu time    0.0133: real time    0.0133
     EDDAV:  cpu time  494.4410: real time  497.7001
 BZINTS: Fermi energy:  5.001426;688.000000 electrons
         Band energy:***********;  BLOECHL correction:  0.000000
       DOS:  cpu time    0.0239: real time    0.0240
    CHARGE:  cpu time    2.9480: real time    2.9708
    MIXING:  cpu time    0.0015: real time    0.0015
    --------------------------------------------
      LOOP:  cpu time  497.5799: real time  500.8643

 eigenvalue-minimisations  : 64512
 total energy-change (2. order) : 0.3889727E-07  (-0.8707668E-07)
 number of electron     688.0000404 magnetization       0.0000000
 augmentation part      282.2354592 magnetization       0.0000000

 Broyden mixing:
  rms(total) = 0.21462E-03    rms(broyden)= 0.21461E-03
  rms(prec ) = 0.25169E-03
  weight for this iteration     100.00

 eigenvalues of (default mixing * dielectric matrix)
  average eigenvalue GAMMA=   0.9037
  1.4746  0.3327

 Free energy of the ion-electron system (eV)
  ---------------------------------------------------
  alpha Z        PSCENC =      2363.04487146
  Ewald energy   TEWEN  =    -62564.46512550
  -Hartree energ DENC   =    -42890.63238411
  -exchange      EXHF   =         0.00000000
  -V(xc)+E(xc)   XCENC  =      3286.46855973
  PAW double counting   =    112213.85661316  -115906.80183606
  entropy T*S    EENTRO =         0.00000000
  eigenvalues    EBANDS =    -10848.84918826
  atomic energy  EATOM  =    114020.06510763
  Solvation  Ediel_sol  =         0.00000000
  ---------------------------------------------------
  free energy    TOTEN  =      -327.31338195 eV

  energy without entropy =     -327.31338195  energy(sigma->0) =     -327.31338195


--------------------------------------------------------------------------------------------------------




--------------------------------------- Iteration      1(   4)  ---------------------------------------


    POTLOK:  cpu time    0.1511: real time    0.1523
    SETDIJ:  cpu time    0.0131: real time    0.0132
     EDDAV:  cpu time  329.1023: real time  331.4749
 BZINTS: Fermi energy:  4.995398;688.000000 electrons
         Band energy:***********;  BLOECHL correction:  0.000000
       DOS:  cpu time    0.0202: real time    0.0203
    CHARGE:  cpu time    2.9521: real time    2.9736
    MIXING:  cpu time    0.0016: real time    0.0016
    --------------------------------------------
      LOOP:  cpu time  332.2404: real time  334.6358

 eigenvalue-minimisations  : 54016
 total energy-change (2. order) : 0.3709283E-07  (-0.1808165E-07)
 number of electron     688.0000404 magnetization       0.0000000
 augmentation part      282.2355022 magnetization       0.0000000

 Broyden mixing:
  rms(total) = 0.59038E-04    rms(broyden)= 0.59037E-04
  rms(prec ) = 0.66549E-04
  weight for this iteration     100.00

 eigenvalues of (default mixing * dielectric matrix)
  average eigenvalue GAMMA=   0.9380
  1.7603  0.7125  0.3413

 Free energy of the ion-electron system (eV)
  ---------------------------------------------------
  alpha Z        PSCENC =      2363.04487146
  Ewald energy   TEWEN  =    -62564.46512550
  -Hartree energ DENC   =    -42890.62792128
  -exchange      EXHF   =         0.00000000
  -V(xc)+E(xc)   XCENC  =      3286.46838884
  PAW double counting   =    112213.82378262  -115906.76927175
  entropy T*S    EENTRO =         0.00000000
  eigenvalues    EBANDS =    -10848.85321392
  atomic energy  EATOM  =    114020.06510763
  Solvation  Ediel_sol  =         0.00000000
  ---------------------------------------------------
  free energy    TOTEN  =      -327.31338191 eV

  energy without entropy =     -327.31338191  energy(sigma->0) =     -327.31338191


--------------------------------------------------------------------------------------------------------




--------------------------------------- Iteration      1(   5)  ---------------------------------------


    POTLOK:  cpu time    0.1499: real time    0.1528
    SETDIJ:  cpu time    0.0130: real time    0.0130
     EDDAV:  cpu time  475.9177: real time  479.0973
 BZINTS: Fermi energy:  4.978421;688.000000 electrons
         Band energy:***********;  BLOECHL correction:  0.000000
       DOS:  cpu time    0.0201: real time    0.0202
    --------------------------------------------
      LOOP:  cpu time  476.1007: real time  479.2833

 eigenvalue-minimisations  : 63488
 total energy-change (2. order) : 0.9473297E-08  (-0.3810652E-08)
 number of electron     688.0000404 magnetization       0.0000000
 augmentation part      282.2355022 magnetization       0.0000000

 Free energy of the ion-electron system (eV)
  ---------------------------------------------------
  alpha Z        PSCENC =      2363.04487146
  Ewald energy   TEWEN  =    -62564.46512550
  -Hartree energ DENC   =    -42890.63000591
  -exchange      EXHF   =         0.00000000
  -V(xc)+E(xc)   XCENC  =      3286.46838596
  PAW double counting   =    112213.82663390  -115906.77225521
  entropy T*S    EENTRO =         0.00000000
  eigenvalues    EBANDS =    -10848.85099423
  atomic energy  EATOM  =    114020.06510763
  Solvation  Ediel_sol  =         0.00000000
  ---------------------------------------------------
  free energy    TOTEN  =      -327.31338190 eV

  energy without entropy =     -327.31338190  energy(sigma->0) =     -327.31338190


--------------------------------------------------------------------------------------------------------




 average (electrostatic) potential at core
  the test charge radii are     0.9698  0.8297  0.9500
  (the norm of the test charge is              1.0000)
       1 -86.5847       2 -86.5847       3 -86.5847       4 -86.5847       5 -86.5847
       6 -86.5847       7 -86.5847       8 -86.5847       9 -86.5847      10 -86.5847
      11 -86.5847      12 -86.5847      13 -86.5847      14 -86.5847      15 -86.5847
      16 -86.5847      17 -86.5847      18 -86.5847      19 -86.5847      20 -86.5847
      21 -86.5847      22 -86.5847      23 -86.5847      24 -86.5847      25 -86.5847
      26 -86.5847      27 -86.5847      28 -86.5847      29 -86.5847      30 -86.5847
      31 -86.5847      32 -86.5847      33 -80.6718      34 -80.6718      35 -80.6718
      36 -80.6718      37 -80.6718      38 -80.6718      39 -80.6718      40 -80.6718
      41 -80.6718      42 -80.6718      43 -80.6718      44 -80.6718      45 -80.6718
      46 -80.6718      47 -80.6718      48 -80.6718      49 -80.1812      50 -80.1812
      51 -80.1812      52 -80.1812      53 -80.1812      54 -80.1812      55 -80.1812
      56 -80.1812      57 -80.1812      58 -80.1812      59 -80.1812      60 -80.1812
      61 -80.1812      62 -80.1812      63 -80.1812      64 -80.1812
 
 
 
 E-fermi :   4.9784     XC(G=0): -10.4869     alpha+bet :-10.5772


 spin component 1

 k-point     1 :       0.0000    0.0000    0.0000
  band No.  band energies     occupation 
      1     -64.2847      1.00000
      2     -64.2847      1.00000
      3     -64.2847      1.00000
      4     -64.2847      1.00000
      5     -64.2847      1.00000
      6     -64.2847      1.00000
      7     -64.2847      1.00000
      8     -64.2847      1.00000
      9     -64.2543      1.00000
     10     -64.2543      1.00000
     11     -64.2543      1.00000
     12     -64.2543      1.00000
     13     -64.2543      1.00000
     14     -64.2543      1.00000
     15     -64.2543      1.00000
     16     -64.2542      1.00000
     17     -64.2520      1.00000
     18     -64.2519      1.00000
     19     -64.2519      1.00000
     20     -64.2519      1.00000
     21     -64.2519      1.00000
     22     -64.2519      1.00000
     23     -64.2519      1.00000
     24     -64.2519      1.00000
     25     -64.2491      1.00000
     26     -64.2491      1.00000
     27     -64.2491      1.00000
     28     -64.2491      1.00000
     29     -64.2491      1.00000
     30     -64.2491      1.00000
     31     -64.2491      1.00000
     32     -64.2491      1.00000
     33     -64.2391      1.00000
     34     -64.2391      1.00000
     35     -64.2391      1.00000
     36     -64.2391      1.00000
     37     -64.2391      1.00000
     38     -64.2391      1.00000
     39     -64.2391      1.00000
     40     -64.2391      1.00000
     41     -64.2144      1.00000
     42     -64.2144      1.00000
     43     -64.2144      1.00000
     44     -64.2144      1.00000
     45     -64.2144      1.00000
     46     -64.2144      1.00000
     47     -64.2144      1.00000
     48     -64.2144      1.00000
     49     -51.8412      1.00000
     50     -51.8412      1.00000
     51     -51.8412      1.00000
     52     -51.8412      1.00000
     53     -51.8412      1.00000
     54     -51.8412      1.00000
     55     -51.8412      1.00000
     56     -51.8412      1.00000
     57     -51.8083      1.00000
     58     -51.8083      1.00000
     59     -51.8083      1.00000
     60     -51.8083      1.00000
     61     -51.8083      1.00000
     62     -51.8083      1.00000
     63     -51.8083      1.00000
     64     -51.8083      1.00000
     65     -51.7857      1.00000
     66     -51.7857      1.00000
     67     -51.7857      1.00000
     68     -51.7857      1.00000
     69     -51.7857      1.00000
     70     -51.7857      1.00000
     71     -51.7857      1.00000
     72     -51.7857      1.00000
     73     -47.6934      1.00000
     74     -47.6934      1.00000
     75     -47.6934      1.00000
     76     -47.6934      1.00000
     77     -47.6934      1.00000
     78     -47.6934      1.00000
     79     -47.6934      1.00000
     80     -47.6934      1.00000
     81     -47.6767      1.00000
     82     -47.6767      1.00000
     83     -47.6767      1.00000
     84     -47.6767      1.00000
     85     -47.6767      1.00000
     86     -47.6767      1.00000
     87     -47.6767      1.00000
     88     -47.6767      1.00000
     89     -47.6760      1.00000
     90     -47.6760      1.00000
     91     -47.6760      1.00000
     92     -47.6760      1.00000
     93     -47.6760      1.00000
     94     -47.6760      1.00000
     95     -47.6760      1.00000
     96     -47.6760      1.00000
     97      -9.0867      1.00000
     98      -8.4835      1.00000
     99      -8.4603      1.00000
    100      -8.4603      1.00000
    101      -8.4598      1.00000
    102      -8.4598      1.00000
    103      -8.4504      1.00000
    104      -8.1894      1.00000
    105      -8.1660      1.00000
    106      -8.1485      1.00000
    107      -8.1317      1.00000
    108      -8.1055      1.00000
    109      -8.1055      1.00000
    110      -8.1055      1.00000
    111      -8.1055      1.00000
    112      -8.0698      1.00000
    113      -8.0698      1.00000
    114      -8.0698      1.00000
    115      -8.0698      1.00000
    116      -8.0181      1.00000
    117      -7.9950      1.00000
    118      -7.9766      1.00000
    119      -7.9462      1.00000
    120      -7.7326      1.00000
    121      -7.7259      1.00000
    122      -7.7211      1.00000
    123      -7.7153      1.00000
    124      -7.7153      1.00000
    125      -7.7144      1.00000
    126      -7.7144      1.00000
    127      -7.6874      1.00000
    128      -7.6807      1.00000
    129      -2.0441      1.00000
    130      -2.0030      1.00000
    131      -2.0030      1.00000
    132      -1.9900      1.00000
    133      -1.9900      1.00000
    134      -1.9853      1.00000
    135      -1.9417      1.00000
    136      -1.9310      1.00000
    137      -1.8646      1.00000
    138      -1.8557      1.00000
    139      -1.8549      1.00000
    140      -1.8516      1.00000
    141      -1.8503      1.00000
    142      -1.8503      1.00000
    143      -1.8448      1.00000
    144      -1.8448      1.00000
    145      -1.8269      1.00000
    146      -1.8110      1.00000
    147      -1.7980      1.00000
    148      -1.7980      1.00000
    149      -1.7925      1.00000
    150      -1.7925      1.00000
    151      -1.7918      1.00000
    152      -1.7731      1.00000
    153      -1.7692      1.00000
    154      -1.7590      1.00000
    155      -1.7590      1.00000
    156      -1.7365      1.00000
    157      -1.7365      1.00000
    158      -1.7150      1.00000
    159      -1.7065      1.00000
    160      -1.7065      1.00000
    161      -1.7002      1.00000
    162      -1.7002      1.00000
    163      -1.6960      1.00000
    164      -1.6861      1.00000
    165      -1.6646      1.00000
    166      -1.6620      1.00000
    167      -1.6483      1.00000
    168      -1.6245      1.00000
    169      -1.0349      1.00000
    170      -0.9089      1.00000
    171      -0.8298      1.00000
    172      -0.7486      1.00000
    173      -0.6968      1.00000
    174      -0.4957      1.00000
    175      -0.2010      1.00000
    176      -0.2010      1.00000
    177      -0.1950      1.00000
    178      -0.1950      1.00000
    179      -0.1685      1.00000
    180      -0.1595      1.00000
    181      -0.0887      1.00000
    182      -0.0068      1.00000
    183      -0.0068      1.00000
    184       0.0079      1.00000
    185       0.0079      1.00000
    186       0.0516      1.00000
    187       0.0615      1.00000
    188       0.1274      1.00000
    189       0.1274      1.00000
    190       0.1312      1.00000
    191       0.1312      1.00000
    192       0.1373      1.00000
    193       0.2290      1.00000
    194       0.3101      1.00000
    195       0.3101      1.00000
    196       0.3206      1.00000
    197       0.3228      1.00000
    198       0.3228      1.00000
    199       0.3838      1.00000
    200       0.6923      1.00000
    201       0.7408      1.00000
    202       0.7899      1.00000
    203       0.7936      1.00000
    204       0.8354      1.00000
    205       0.8354      1.00000
    206       0.8520      1.00000
    207       0.8520      1.00000
    208       0.8919      1.00000
    209       0.8919      1.00000
    210       0.9146      1.00000
    211       0.9146      1.00000
    212       1.0107      1.00000
    213       1.0510      1.00000
    214       1.0510      1.00000
    215       1.0519      1.00000
    216       1.0519      1.00000
    217       1.0773      1.00000
    218       1.1420      1.00000
    219       1.1853      1.00000
    220       1.2008      1.00000
    221       1.2205      1.00000
    222       1.2205      1.00000
    223       1.2234      1.00000
    224       1.2234      1.00000
    225       1.2370      1.00000
    226       1.2551      1.00000
    227       1.2578      1.00000
    228       1.2833      1.00000
    229       1.2876      1.00000
    230       1.2878      1.00000
    231       1.3258      1.00000
    232       1.3258      1.00000
    233       1.3321      1.00000
    234       1.3389      1.00000
    235       1.3389      1.00000
    236       1.4443      1.00000
    237       1.4610      1.00000
    238       1.5951      1.00000
    239       1.6409      1.00000
    240       1.6447      1.00000
    241       1.6575      1.00000
    242       1.6853      1.00000
    243       1.8199      1.00000
    244       1.8199      1.00000
    245       1.8313      1.00000
    246       1.8313      1.00000
    247       1.8634      1.00000
    248       1.9036      1.00000
    249       1.9394      1.00000
    250       1.9394      1.00000
    251       1.9645      1.00000
    252       1.9645      1.00000
    253       2.0060      1.00000
    254       2.0118      1.00000
    255       2.0860      1.00000
    256       2.1135      1.00000
    257       2.1812      1.00000
    258       2.1879      1.00000
    259       2.1879      1.00000
    260       2.2516      1.00000
    261       2.2600      1.00000
    262       2.2600      1.00000
    263       2.4283      1.00000
    264       2.4599      1.00000
    265       2.6565      1.00000
    266       2.7650      1.00000
    267       2.7655      1.00000
    268       2.7655      1.00000
    269       2.7920      1.00000
    270       2.7920      1.00000
    271       2.7945      1.00000
    272       2.8057      1.00000
    273       2.8057      1.00000
    274       2.8099      1.00000
    275       2.8099      1.00000
    276       2.8139      1.00000
    277       2.8276      1.00000
    278       2.8530      1.00000
    279       2.8720      1.00000
    280       2.8953      1.00000
    281       2.9403      1.00000
    282       2.9578      1.00000
    283       2.9578      1.00000
    284       2.9616      1.00000
    285       2.9616      1.00000
    286       2.9956      1.00000
    287       2.9968      1.00000
    288       3.0800      1.00000
    289       3.0916      1.00000
    290       3.1649      1.00000
    291       3.1824      1.00000
    292       3.1936      1.00000
    293       3.2036      1.00000
    294       3.2036      1.00000
    295       3.2323      1.00000
    296       3.2323      1.00000
    297       3.3066      1.00000
    298       3.3311      1.00000
    299       3.3810      1.00000
    300       3.3810      1.00000
    301       3.3973      1.00000
    302       3.4115      1.00000
    303       3.4648      1.00000
    304       3.4648      1.00000
    305       3.5629      1.00000
    306       3.5836      1.00000
    307       3.5917      1.00000
    308       3.5917      1.00000
    309       3.5937      1.00000
    310       3.5937      1.00000
    311       3.6934      1.00000
    312       3.6934      1.00000
    313       3.6944      1.00000
    314       3.6944      1.00000
    315       3.7422      1.00000
    316       3.7809      1.00000
    317       3.8477      1.00000
    318       3.9063      1.00000
    319       4.0399      1.00000
    320       4.0592      1.00000
    321       4.0731      1.00000
    322       4.0731      1.00000
    323       4.1005      1.00000
    324       4.1005      1.00000
    325       4.1148      1.00000
    326       4.1148      1.00000
    327       4.1445      1.00000
    328       4.1634      1.00000
    329       4.1738      1.00000
    330       4.2082      1.00000
    331       4.2082      1.00000
    332       4.2267      1.00000
    333       4.2524      1.00000
    334       4.3000      1.00000
    335       4.3612      1.00000
    336       4.5865      1.00000
    337       4.6785      1.00000
    338       4.6785      1.00000
    339       4.6795      1.00000
    340       4.6855      1.00000
    341       4.7120      1.00000
    342       4.7120      1.00000
    343       4.8236      1.00000
    344       4.9527      1.00000
    345       5.7126      0.00000
    346       5.7126      0.00000
    347       5.7581      0.00000
    348       5.7581      0.00000
    349       5.7801      0.00000
    350       5.7823      0.00000
    351       5.8106      0.00000
    352       5.9310      0.00000
    353       5.9399      0.00000
    354       5.9601      0.00000
    355       5.9601      0.00000
    356       5.9824      0.00000
    357       6.0349      0.00000
    358       6.0422      0.00000
    359       6.0422      0.00000
    360       6.0693      0.00000
    361       6.0693      0.00000
    362       6.0869      0.00000
    363       6.1189      0.00000
    364       6.1189      0.00000
    365       6.2178      0.00000
    366       6.2203      0.00000
    367       6.2295      0.00000
    368       6.2295      0.00000
    369       6.2387      0.00000
    370       6.2387      0.00000
    371       6.2561      0.00000
    372       6.3012      0.00000
    373       6.3060      0.00000
    374       6.3759      0.00000
    375       6.3900      0.00000
    376       6.4397      0.00000
    377       6.4755      0.00000
    378       6.5357      0.00000
    379       6.5357      0.00000
    380       6.5438      0.00000
    381       6.5438      0.00000
    382       6.5440      0.00000
    383       6.6583      0.00000
    384       6.8290      0.00000
    385       7.6259      0.00000
    386       8.5446      0.00000
    387       8.7717      0.00000
    388       8.8025      0.00000
    389       8.8153      0.00000
    390       9.0179      0.00000
    391       9.1060      0.00000
    392       9.4301      0.00000
    393       9.4408      0.00000
    394       9.4408      0.00000
    395       9.4418      0.00000
    396       9.4418      0.00000
    397       9.4502      0.00000
    398       9.5800      0.00000
    399      10.1258      0.00000
    400      10.1310      0.00000
    401      10.2168      0.00000
    402      10.4674      0.00000
    403      10.6175      0.00000
    404      10.6175      0.00000
    405      10.6349      0.00000
    406      10.6357      0.00000
    407      10.6357      0.00000
    408      10.6548      0.00000
    409      10.6548      0.00000
    410      10.6669      0.00000
    411      10.6669      0.00000
    412      10.6976      0.00000
    413      10.7466      0.00000
    414      10.7466      0.00000
    415      10.7795      0.00000
    416      10.7795      0.00000
    417      10.7888      0.00000
    418      10.8491      0.00000
    419      10.8491      0.00000
    420      10.9093      0.00000
    421      10.9093      0.00000
    422      10.9366      0.00000
    423      10.9810      0.00000
    424      11.1831      0.00000
    425      11.2294      0.00000
    426      11.4430      0.00000
    427      11.5424      0.00000
    428      11.5424      0.00000
    429      11.5505      0.00000
    430      11.5505      0.00000
    431      11.6356      0.00000
    432      11.6889      0.00000
    433      11.7698      0.00000
    434      11.7769      0.00000
    435      11.7769      0.00000
    436      11.7816      0.00000
    437      11.7816      0.00000
    438      11.9771      0.00000
    439      11.9864      0.00000
    440      12.0005      0.00000
    441      12.0343      0.00000
    442      12.0912      0.00000
    443      12.1219      0.00000
    444      12.2897      0.00000
    445      12.3473      0.00000
    446      12.3473      0.00000
    447      12.3498      0.00000
    448      12.3859      0.00000
    449      12.3859      0.00000
    450      12.3990      0.00000
    451      12.4111      0.00000
    452      12.4766      0.00000
    453      12.6523      0.00000
    454      12.7401      0.00000
    455      12.7401      0.00000
    456      12.7688      0.00000
    457      12.7791      0.00000
    458      12.8177      0.00000
    459      12.8177      0.00000
    460      12.8350      0.00000
    461      12.8514      0.00000
    462      12.8514      0.00000
    463      12.8772      0.00000
    464      12.8772      0.00000
    465      12.9494      0.00000
    466      13.0017      0.00000
    467      13.0433      0.00000
    468      13.0433      0.00000
    469      13.1038      0.00000
    470      13.1038      0.00000
    471      13.1453      0.00000
    472      13.2664      0.00000
    473      13.3848      0.00000
    474      13.4572      0.00000
    475      13.4572      0.00000
    476      13.4579      0.00000
    477      13.4579      0.00000
    478      13.4776      0.00000
    479      13.5244      0.00000
    480      13.5244      0.00000
    481      13.5262      0.00000
    482      13.5262      0.00000
    483      13.5292      0.00000
    484      13.5675      0.00000
    485      13.5709      0.00000
    486      13.7589      0.00000
    487      13.7639      0.00000
    488      13.7767      0.00000
    489      13.7767      0.00000
    490      13.7871      0.00000
    491      13.7951      0.00000
    492      13.7951      0.00000
    493      13.8771      0.00000
    494      13.8805      0.00000
    495      13.8834      0.00000
    496      13.8835      0.00000
    497      13.8835      0.00000
    498      13.8924      0.00000
    499      13.8924      0.00000
    500      14.0285      0.00000
    501      14.0406      0.00000
    502      14.1737      0.00000
    503      14.1737      0.00000
    504      14.1758      0.00000
    505      14.1758      0.00000
    506      14.1894      0.00000
[...]
   -.419E+02 0.673E+00 0.267E+02   0.427E+02 -.642E+00 -.270E+02   -.844E+00 -.312E-01 0.266E+00   0.675E-04 -.105E-04 -.183E-04
   -.419E+02 0.673E+00 0.267E+02   0.427E+02 -.642E+00 -.270E+02   -.844E+00 -.312E-01 0.266E+00   0.675E-04 -.105E-04 -.183E-04
   -.419E+02 0.673E+00 0.267E+02   0.427E+02 -.642E+00 -.270E+02   -.844E+00 -.312E-01 0.266E+00   0.675E-04 -.105E-04 -.183E-04
   -.419E+02 0.673E+00 0.267E+02   0.427E+02 -.642E+00 -.270E+02   -.844E+00 -.312E-01 0.266E+00   0.675E-04 -.105E-04 -.183E-04
   0.419E+02 -.673E+00 0.267E+02   -.427E+02 0.642E+00 -.270E+02   0.844E+00 0.312E-01 0.266E+00   -.675E-04 0.105E-04 -.183E-04
   0.419E+02 -.673E+00 0.267E+02   -.427E+02 0.642E+00 -.270E+02   0.844E+00 0.312E-01 0.266E+00   -.675E-04 0.105E-04 -.183E-04
   0.419E+02 -.673E+00 0.267E+02   -.427E+02 0.642E+00 -.270E+02   0.844E+00 0.312E-01 0.266E+00   -.675E-04 0.105E-04 -.183E-04
   0.419E+02 -.673E+00 0.267E+02   -.427E+02 0.642E+00 -.270E+02   0.844E+00 0.312E-01 0.266E+00   -.675E-04 0.105E-04 -.183E-04
   0.673E+00 -.419E+02 0.267E+02   -.642E+00 0.427E+02 -.270E+02   -.312E-01 -.844E+00 0.266E+00   -.105E-04 0.675E-04 -.183E-04
   0.673E+00 -.419E+02 0.267E+02   -.642E+00 0.427E+02 -.270E+02   -.312E-01 -.844E+00 0.266E+00   -.105E-04 0.675E-04 -.183E-04
   0.673E+00 -.419E+02 0.267E+02   -.642E+00 0.427E+02 -.270E+02   -.312E-01 -.844E+00 0.266E+00   -.105E-04 0.675E-04 -.183E-04
   0.673E+00 -.419E+02 0.267E+02   -.642E+00 0.427E+02 -.270E+02   -.312E-01 -.844E+00 0.266E+00   -.105E-04 0.675E-04 -.183E-04
   -.673E+00 0.419E+02 0.267E+02   0.642E+00 -.427E+02 -.270E+02   0.312E-01 0.844E+00 0.266E+00   0.105E-04 -.675E-04 -.183E-04
   -.673E+00 0.419E+02 0.267E+02   0.642E+00 -.427E+02 -.270E+02   0.312E-01 0.844E+00 0.266E+00   0.105E-04 -.675E-04 -.183E-04
   -.673E+00 0.419E+02 0.267E+02   0.642E+00 -.427E+02 -.270E+02   0.312E-01 0.844E+00 0.266E+00   0.105E-04 -.675E-04 -.183E-04
   -.673E+00 0.419E+02 0.267E+02   0.642E+00 -.427E+02 -.270E+02   0.312E-01 0.844E+00 0.266E+00   0.105E-04 -.675E-04 -.183E-04
   -.989E-07 -.746E-07 -.313E+02   -.230E-10 -.141E-10 0.301E+02   0.822E-19 0.434E-18 0.127E+01   -.229E-10 -.743E-11 -.139E-04
   -.989E-07 -.746E-07 -.313E+02   -.150E-10 0.176E-10 0.301E+02   0.745E-19 0.163E-18 0.127E+01   0.251E-10 0.949E-11 -.139E-04
   -.989E-07 -.746E-07 -.313E+02   0.153E-10 -.177E-10 0.301E+02   0.856E-19 0.813E-19 0.127E+01   -.211E-10 0.417E-12 -.139E-04
   -.988E-07 -.746E-07 -.313E+02   0.234E-10 0.139E-10 0.301E+02   0.130E-18 -.108E-18 0.127E+01   0.238E-11 -.934E-11 -.139E-04
   -.746E-07 -.989E-07 -.313E+02   -.158E-10 -.389E-11 0.301E+02   -.167E-18 -.186E-19 0.127E+01   -.123E-10 0.170E-11 -.139E-04
   -.746E-07 -.989E-07 -.313E+02   -.158E-10 -.395E-11 0.301E+02   -.376E-18 -.119E-19 0.127E+01   0.281E-10 -.318E-10 -.139E-04
   -.746E-07 -.988E-07 -.313E+02   0.156E-10 0.429E-11 0.301E+02   0.180E-18 -.559E-19 0.127E+01   -.193E-10 0.190E-11 -.139E-04
   -.746E-07 -.989E-07 -.313E+02   0.157E-10 0.418E-11 0.301E+02   -.259E-18 -.271E-19 0.127E+01   0.211E-10 0.962E-11 -.139E-04
   -.989E-07 -.746E-07 -.313E+02   0.171E-12 0.799E-14 0.301E+02   -.135E-18 -.108E-18 0.127E+01   -.496E-11 -.552E-11 -.139E-04
   -.988E-07 -.746E-07 -.313E+02   0.313E-12 -.986E-13 0.301E+02   0.508E-19 -.542E-19 0.127E+01   -.995E-12 0.228E-10 -.139E-04
   -.988E-07 -.745E-07 -.313E+02   0.256E-12 0.110E-12 0.301E+02   0.508E-20 -.813E-19 0.127E+01   0.316E-11 -.372E-11 -.139E-04
   -.988E-07 -.746E-07 -.313E+02   0.284E-12 -.107E-13 0.301E+02   0.220E-19 0.813E-19 0.127E+01   -.119E-10 -.229E-10 -.139E-04
   -.746E-07 -.989E-07 -.313E+02   0.180E-11 -.192E-10 0.301E+02   -.671E-19 0.508E-19 0.127E+01   0.120E-10 0.239E-11 -.139E-04
   -.746E-07 -.989E-07 -.313E+02   -.200E-11 0.191E-10 0.301E+02   -.121E-18 0.678E-19 0.127E+01   -.341E-11 0.101E-10 -.139E-04
   -.746E-07 -.988E-07 -.313E+02   0.162E-11 -.190E-10 0.301E+02   -.688E-20 -.813E-19 0.127E+01   0.191E-10 -.156E-10 -.139E-04
   -.746E-07 -.988E-07 -.313E+02   -.210E-11 0.192E-10 0.301E+02   -.778E-20 0.949E-19 0.127E+01   -.102E-10 -.143E-10 -.139E-04
   -.256E-07 0.538E-07 -.254E+02   0.196E-10 0.111E-10 0.239E+02   0.284E-17 0.108E-18 0.150E+01   0.112E-10 0.959E-12 -.246E-04
   -.256E-07 0.538E-07 -.254E+02   0.119E-10 -.139E-10 0.239E+02   0.610E-18 -.108E-17 0.150E+01   -.135E-10 -.976E-11 -.246E-04
   -.257E-07 0.538E-07 -.254E+02   -.118E-10 0.140E-10 0.239E+02   -.515E-18 -.434E-18 0.150E+01   0.813E-11 0.640E-11 -.246E-04
   -.256E-07 0.538E-07 -.254E+02   -.195E-10 -.111E-10 0.239E+02   -.148E-17 -.206E-17 0.150E+01   0.700E-11 0.114E-10 -.246E-04
   0.538E-07 -.256E-07 -.254E+02   0.125E-10 0.370E-11 0.239E+02   -.878E-18 -.976E-18 0.150E+01   0.102E-10 -.656E-11 -.246E-04
   0.538E-07 -.256E-07 -.254E+02   0.125E-10 0.380E-11 0.239E+02   -.715E-18 0.976E-18 0.150E+01   -.175E-10 0.136E-10 -.246E-04
   0.538E-07 -.257E-07 -.254E+02   -.127E-10 -.401E-11 0.239E+02   -.285E-18 0.434E-18 0.150E+01   0.737E-11 0.703E-11 -.246E-04
   0.538E-07 -.257E-07 -.254E+02   -.128E-10 -.398E-11 0.239E+02   -.237E-18 0.108E-18 0.150E+01   -.166E-10 -.910E-12 -.246E-04
   -.256E-07 0.538E-07 -.254E+02   0.103E-12 0.124E-13 0.239E+02   0.535E-18 -.542E-18 0.150E+01   0.160E-11 0.885E-11 -.246E-04
   -.256E-07 0.538E-07 -.254E+02   0.604E-13 0.204E-13 0.239E+02   -.318E-18 0.434E-18 0.150E+01   -.219E-11 -.334E-11 -.246E-04
   -.256E-07 0.538E-07 -.254E+02   0.853E-13 0.444E-13 0.239E+02   0.190E-18 -.867E-18 0.150E+01   -.410E-11 -.668E-11 -.246E-04
   -.256E-07 0.538E-07 -.254E+02   0.426E-13 -.888E-14 0.239E+02   -.116E-17 -.228E-17 0.150E+01   0.107E-10 0.990E-11 -.246E-04
   0.538E-07 -.256E-07 -.254E+02   -.152E-11 0.157E-10 0.239E+02   -.596E-18 -.434E-18 0.150E+01   -.139E-10 0.814E-11 -.246E-04
   0.538E-07 -.257E-07 -.254E+02   0.136E-11 -.159E-10 0.239E+02   0.491E-18 0.217E-18 0.150E+01   0.941E-11 0.658E-11 -.246E-04
   0.538E-07 -.256E-07 -.254E+02   -.155E-11 0.156E-10 0.239E+02   -.772E-18 -.434E-18 0.150E+01   -.241E-10 0.174E-11 -.246E-04
   0.538E-07 -.256E-07 -.254E+02   0.135E-11 -.159E-10 0.239E+02   0.103E-17 0.434E-18 0.150E+01   0.191E-10 -.993E-12 -.246E-04
 -----------------------------------------------------------------------------------------------
   -.915E-06 -.915E-06 -.527E+02   -.226E-12 -.285E-12 0.405E-12   -.335E-15 -.112E-14 0.528E+02   -.235E-11 -.602E-11 -.120E-02
 
 
 POSITION                                       TOTAL-FORCE (eV/Angst)
 -----------------------------------------------------------------------------------
      1.38108      1.37510      1.25386         0.000014     -0.000004     -0.000007
      6.62905      1.60423      1.25386         0.000014     -0.000004     -0.000007
      1.61022      6.62307      1.25386         0.000014     -0.000004     -0.000007
      6.85818      6.85220      1.25386         0.000014     -0.000004     -0.000007
      4.09601      4.10199      1.25386        -0.000014      0.000004     -0.000007
      9.34397      4.33112      1.25386        -0.000014      0.000004     -0.000007
      4.32514      9.34995      1.25386        -0.000014      0.000004     -0.000007
      9.57310      9.57909      1.25386        -0.000014      0.000004     -0.000007
      1.47801      3.98144      9.07968         0.000004     -0.000014     -0.000007
      6.72597      4.21058      9.07968         0.000004     -0.000014     -0.000007
      1.70714      9.22941      9.07968         0.000004     -0.000014     -0.000007
      6.95510      9.45854      9.07968         0.000004     -0.000014     -0.000007
      3.99908      1.49565      9.07968        -0.000004      0.000014     -0.000007
      9.24705      1.72478      9.07968        -0.000004      0.000014     -0.000007
      4.22822      6.74361      9.07968        -0.000004      0.000014     -0.000007
      9.47618      6.97274      9.07968        -0.000004      0.000014     -0.000007
      1.35746      1.36344      6.47107        -0.000014      0.000004     -0.000007
      6.60543      1.59258      6.47107        -0.000014      0.000004     -0.000007
      1.58659      6.61141      6.47107        -0.000014      0.000004     -0.000007
      6.83456      6.84054      6.47107        -0.000014      0.000004     -0.000007
      4.11963      4.11365      6.47107         0.000014     -0.000004     -0.000007
      9.36759      4.34278      6.47107         0.000014     -0.000004     -0.000007
      4.34876      9.36161      6.47107         0.000014     -0.000004     -0.000007
      9.59673      9.59074      6.47107         0.000014     -0.000004     -0.000007
      3.98743      1.47203      3.86246         0.000004     -0.000014     -0.000007
      9.23539      1.70116      3.86246         0.000004     -0.000014     -0.000007
      4.21656      6.71999      3.86246         0.000004     -0.000014     -0.000007
      9.46452      6.94912      3.86246         0.000004     -0.000014     -0.000007
      1.48967      4.00507      3.86246        -0.000004      0.000014     -0.000007
      6.73763      4.23420      3.86246        -0.000004      0.000014     -0.000007
      1.71880      9.25303      3.86246        -0.000004      0.000014     -0.000007
      6.96676      9.48216      3.86246        -0.000004      0.000014     -0.000007
      0.00000      0.00000      5.26098         0.000000      0.000000      0.000009
      5.24796      0.22913      5.26098         0.000000      0.000000      0.000009
      0.22913      5.24796      5.26098         0.000000      0.000000      0.000009
      5.47709      5.47709      5.26098         0.000000      0.000000      0.000009
      2.62398      0.11457      2.65237         0.000000      0.000000      0.000009
      7.87195      0.34370      2.65237         0.000000      0.000000      0.000009
      2.85311      5.36253      2.65237         0.000000      0.000000      0.000009
      8.10108      5.59166      2.65237         0.000000      0.000000      0.000009
      2.73855      2.73855      0.04376         0.000000      0.000000      0.000009
      7.98651      2.96768      0.04376         0.000000      0.000000      0.000009
      2.96768      7.98651      0.04376         0.000000      0.000000      0.000009
      8.21564      8.21564      0.04376         0.000000      0.000000      0.000009
      0.11457      2.62398      7.86959         0.000000      0.000000      0.000009
      5.36253      2.85311      7.86959         0.000000      0.000000      0.000009
      0.34370      7.87195      7.86959         0.000000      0.000000      0.000009
      5.59166      8.10108      7.86959         0.000000      0.000000      0.000009
      0.00000      0.00000      0.05713         0.000000      0.000000      0.000006
      5.24796      0.22913      0.05713         0.000000      0.000000      0.000006
      0.22913      5.24796      0.05713         0.000000      0.000000      0.000006
      5.47709      5.47709      0.05713         0.000000      0.000000      0.000006
      2.62398      0.11457      7.88295         0.000000      0.000000      0.000006
      7.87195      0.34370      7.88295         0.000000      0.000000      0.000006
      2.85311      5.36253      7.88295         0.000000      0.000000      0.000006
      8.10108      5.59166      7.88295         0.000000      0.000000      0.000006
      2.73855      2.73855      5.27435         0.000000      0.000000      0.000006
      7.98651      2.96768      5.27435         0.000000      0.000000      0.000006
      2.96768      7.98651      5.27435         0.000000      0.000000      0.000006
      8.21564      8.21564      5.27435         0.000000      0.000000      0.000006
      0.11457      2.62398      2.66574         0.000000      0.000000      0.000006
      5.36253      2.85311      2.66574         0.000000      0.000000      0.000006
      0.34370      7.87195      2.66574         0.000000      0.000000      0.000006
      5.59166      8.10108      2.66574         0.000000      0.000000      0.000006
 -----------------------------------------------------------------------------------
    total drift:                               -0.000001     -0.000001      0.032223


--------------------------------------------------------------------------------------------------------



  FREE ENERGIE OF THE ION-ELECTRON SYSTEM (eV)
  ---------------------------------------------------
  free  energy   TOTEN  =      -327.31338190 eV

  energy  without entropy=     -327.31338190  energy(sigma->0) =     -327.31338190
 


--------------------------------------------------------------------------------------------------------


    POTLOK:  cpu time    0.1644: real time    0.1652


--------------------------------------------------------------------------------------------------------


 writing wavefunctions
     LOOP+:  cpu time 2527.2795: real time 3046.2783
    4ORBIT:  cpu time    0.0000: real time    0.0000
 


 total charge     
 
# of ion       s       p       d       tot
------------------------------------------
    1        1.314   2.408   0.000   3.722
    2        1.314   2.408   0.000   3.722
    3        1.314   2.408   0.000   3.722
    4        1.314   2.408   0.000   3.722
    5        1.314   2.408   0.000   3.722
    6        1.314   2.408   0.000   3.722
    7        1.314   2.408   0.000   3.722
    8        1.314   2.408   0.000   3.722
    9        1.314   2.408   0.000   3.722
   10        1.314   2.408   0.000   3.722
   11        1.314   2.408   0.000   3.722
   12        1.314   2.408   0.000   3.722
   13        1.314   2.408   0.000   3.722
   14        1.314   2.408   0.000   3.722
   15        1.314   2.408   0.000   3.722
   16        1.314   2.408   0.000   3.722
   17        1.314   2.408   0.000   3.722
   18        1.314   2.408   0.000   3.722
   19        1.314   2.408   0.000   3.722
   20        1.314   2.408   0.000   3.722
   21        1.314   2.408   0.000   3.722
   22        1.314   2.408   0.000   3.722
   23        1.314   2.408   0.000   3.722
   24        1.314   2.408   0.000   3.722
   25        1.314   2.408   0.000   3.722
   26        1.314   2.408   0.000   3.722
   27        1.314   2.408   0.000   3.722
   28        1.314   2.408   0.000   3.722
   29        1.314   2.408   0.000   3.722
   30        1.314   2.408   0.000   3.722
   31        1.314   2.408   0.000   3.722
   32        1.314   2.408   0.000   3.722
   33        0.259   6.201   8.916  15.377
   34        0.259   6.201   8.916  15.377
   35        0.259   6.201   8.916  15.377
   36        0.259   6.201   8.916  15.377
   37        0.259   6.201   8.916  15.377
   38        0.259   6.201   8.916  15.377
   39        0.259   6.201   8.916  15.377
   40        0.259   6.201   8.916  15.377
   41        0.259   6.201   8.916  15.377
   42        0.259   6.201   8.916  15.377
   43        0.259   6.201   8.916  15.377
   44        0.259   6.201   8.916  15.377
   45        0.259   6.201   8.916  15.377
   46        0.259   6.201   8.916  15.377
   47        0.259   6.201   8.916  15.377
   48        0.259   6.201   8.916  15.377
   49        0.348   6.348   5.821  12.517
   50        0.348   6.348   5.821  12.517
   51        0.348   6.348   5.821  12.517
   52        0.348   6.348   5.821  12.517
   53        0.348   6.348   5.822  12.518
   54        0.348   6.348   5.822  12.518
   55        0.348   6.348   5.822  12.518
   56        0.348   6.348   5.822  12.518
   57        0.348   6.348   5.821  12.517
   58        0.348   6.348   5.821  12.517
   59        0.348   6.348   5.821  12.517
   60        0.348   6.348   5.821  12.517
   61        0.348   6.348   5.822  12.518
   62        0.348   6.348   5.822  12.518
   63        0.348   6.348   5.822  12.518
   64        0.348   6.348   5.822  12.518
--------------------------------------------------
tot         51.772 277.841 235.805 565.418
 


 magnetization (x)
 
# of ion       s       p       d       tot
------------------------------------------
    1       -0.001  -0.021   0.000  -0.022
    2       -0.001  -0.021   0.000  -0.022
    3       -0.001  -0.021   0.000  -0.022
    4       -0.001  -0.021   0.000  -0.022
    5       -0.001  -0.021   0.000  -0.022
    6       -0.001  -0.021   0.000  -0.022
    7       -0.001  -0.021   0.000  -0.022
    8       -0.001  -0.021   0.000  -0.022
    9        0.001   0.021   0.000   0.022
   10        0.001   0.021   0.000   0.022
   11        0.001   0.021   0.000   0.022
   12        0.001   0.021   0.000   0.022
   13        0.001   0.021   0.000   0.022
   14        0.001   0.021   0.000   0.022
   15        0.001   0.021   0.000   0.022
   16        0.001   0.021   0.000   0.022
   17       -0.001  -0.021   0.000  -0.022
   18       -0.001  -0.021   0.000  -0.022
   19       -0.001  -0.021   0.000  -0.022
   20       -0.001  -0.021   0.000  -0.022
   21       -0.001  -0.021   0.000  -0.022
   22       -0.001  -0.021   0.000  -0.022
   23       -0.001  -0.021   0.000  -0.022
   24       -0.001  -0.021   0.000  -0.022
   25        0.001   0.021   0.000   0.022
   26        0.001   0.021   0.000   0.022
   27        0.001   0.021   0.000   0.022
   28        0.001   0.021   0.000   0.022
   29        0.001   0.021   0.000   0.022
   30        0.001   0.021   0.000   0.022
   31        0.001   0.021   0.000   0.022
   32        0.001   0.021   0.000   0.022
   33        0.000  -0.000   0.002   0.002
   34        0.000  -0.000   0.002   0.002
   35        0.000  -0.000   0.002   0.002
   36        0.000  -0.000   0.002   0.002
   37       -0.000   0.000  -0.002  -0.002
   38       -0.000   0.000  -0.002  -0.002
   39       -0.000   0.000  -0.002  -0.002
   40       -0.000   0.000  -0.002  -0.002
   41        0.000  -0.000   0.002   0.002
   42        0.000  -0.000   0.002   0.002
   43        0.000  -0.000   0.002   0.002
   44        0.000  -0.000   0.002   0.002
   45       -0.000   0.000  -0.002  -0.002
   46       -0.000   0.000  -0.002  -0.002
   47       -0.000   0.000  -0.002  -0.002
   48       -0.000   0.000  -0.002  -0.002
   49        0.020   0.053   3.669   3.742
   50        0.020   0.053   3.669   3.742
   51        0.020   0.053   3.669   3.742
   52        0.020   0.053   3.669   3.742
   53       -0.020  -0.053  -3.669  -3.742
   54       -0.020  -0.053  -3.669  -3.742
   55       -0.020  -0.053  -3.669  -3.742
   56       -0.020  -0.053  -3.669  -3.742
   57        0.020   0.053   3.669   3.742
   58        0.020   0.053   3.669   3.742
   59        0.020   0.053   3.669   3.742
   60        0.020   0.053   3.669   3.742
   61       -0.020  -0.053  -3.669  -3.742
   62       -0.020  -0.053  -3.669  -3.742
   63       -0.020  -0.053  -3.669  -3.742
   64       -0.020  -0.053  -3.669  -3.742
--------------------------------------------------
tot         -0.001   0.001  -0.001  -0.001
 
 BZINTS: Fermi energy:  4.978421;688.000000 electrons
         Band energy:***********;  BLOECHL correction:  0.000000

 total amount of memory used by VASP MPI-rank0   661185. kBytes
=======================================================================

   base      :      30000. kBytes
   nonl-proj :     488484. kBytes
   fftplans  :       4588. kBytes
   grid      :      69719. kBytes
   one-center:       1990. kBytes
   wavefun   :      66404. kBytes
 
  
  
 General timing and accounting informations for this job:
 ========================================================
  
                  Total CPU time used (sec):     2635.013
                            User time (sec):     2612.840
                          System time (sec):       22.173
                         Elapsed time (sec):     3157.448
  
                   Maximum memory used (kb):     1162100.
                   Average memory used (kb):           0.
  
                          Minor page faults:       465147
                          Major page faults:         5082
                 Voluntary context switches:         7394
