       N       E                     dE             d eps       ncg     rms          rms(c)
DAV:   1    -0.305294165795E+03   -0.30529E+03   -0.13295E+03 18944   0.200E+02    0.310E+01
DAV:   2    -0.327817621423E+03   -0.22523E+02   -0.22555E+02 13056   0.224E+01    0.126E+01
DAV:   3    -0.328087536208E+03   -0.26991E+00   -0.33519E+00 17664   0.334E+00    0.922E+00
DAV:   4    -0.328093267216E+03   -0.57310E-02   -0.18080E-01 14848   0.109E+00    0.798E+00
DAV:   5    -0.328093625326E+03   -0.35811E-03   -0.14854E-02 16896   0.338E-01    0.695E+00
DAV:   6    -0.328093370146E+03    0.25518E-03   -0.64596E-04 15104   0.680E-02    0.637E+00
DAV:   7    -0.328092701267E+03    0.66888E-03   -0.40709E-04 16896   0.626E-02    0.506E+00
DAV:   8    -0.328092182660E+03    0.51861E-03   -0.49245E-04 13312   0.659E-02    0.300E+00
DAV:   9    -0.328092071641E+03    0.11102E-03   -0.74918E-05 17152   0.202E-02    0.241E+00
DAV:  10    -0.328091942030E+03    0.12961E-03   -0.10774E-04 14336   0.270E-02    0.138E+00
DAV:  11    -0.328091879557E+03    0.62473E-04   -0.96823E-05 16384   0.260E-02    0.452E-01
DAV:  12    -0.328091871303E+03    0.82548E-05   -0.10837E-05 14336   0.622E-03    0.185E-01
DAV:  13    -0.328091867984E+03    0.33181E-05   -0.30585E-06 15872   0.297E-03    0.392E-02
DAV:  14    -0.328091867470E+03    0.51442E-06   -0.31882E-07 13568   0.135E-03    0.422E-03
DAV:  15    -0.328091867352E+03    0.11819E-06   -0.21269E-08 12288   0.282E-04    0.192E-03
DAV:  16    -0.328091867381E+03   -0.29322E-07   -0.32305E-09  9728   0.142E-04    0.210E-04
DAV:  17    -0.328091867372E+03    0.89203E-08    0.72550E-11 10752   0.783E-05
   1 F= -.32809187E+03 E0= -.32809187E+03  d E =0.000000E+00  mag=     0.0000
