       N       E                     dE             d eps       ncg     rms          rms(c)
DAV:   1     0.619046487185E+04    0.61905E+04   -0.50376E+05 12288   0.194E+03
DAV:   2    -0.881413693979E+02   -0.62786E+04   -0.61470E+04 13056   0.440E+02
DAV:   3    -0.371172873820E+03   -0.28303E+03   -0.28172E+03 17408   0.102E+02
DAV:   4    -0.375112311010E+03   -0.39394E+01   -0.39392E+01 13824   0.123E+01
DAV:   5    -0.375215568640E+03   -0.10326E+00   -0.10326E+00 16896   0.201E+00    0.751E+01
DAV:   6    -0.333842363670E+03    0.41373E+02   -0.59476E+02 12288   0.818E+01    0.101E+02
DAV:   7    -0.328189375599E+03    0.56530E+01   -0.11926E+02 12288   0.278E+01    0.437E+01
DAV:   8    -0.328469488890E+03   -0.28011E+00   -0.39963E+01 14848   0.216E+01    0.334E+01
DAV:   9    -0.330064528029E+03   -0.15950E+01   -0.11037E+02 14848   0.250E+01    0.237E+01
DAV:  10    -0.326383067239E+03    0.36815E+01   -0.21013E+01 16384   0.155E+01    0.280E+00
DAV:  11    -0.326495796856E+03   -0.11273E+00   -0.13451E+00 18688   0.201E+00    0.355E+00
DAV:  12    -0.326491545620E+03    0.42512E-02   -0.47576E-01 15360   0.176E+00    0.134E+00
DAV:  13    -0.326502663258E+03   -0.11118E-01   -0.50897E-02 16128   0.367E-01    0.901E-01
DAV:  14    -0.326517630524E+03   -0.14967E-01   -0.91370E-02 15872   0.453E-01    0.451E-01
DAV:  15    -0.326517596997E+03    0.33527E-04   -0.66249E-03 13824   0.200E-01    0.210E-01
DAV:  16    -0.326518094622E+03   -0.49763E-03   -0.10019E-03 17408   0.442E-02    0.140E-01
DAV:  17    -0.326519176597E+03   -0.10820E-02   -0.66135E-03 14592   0.843E-02    0.775E-02
DAV:  18    -0.326519252989E+03   -0.76392E-04   -0.31091E-04 14848   0.255E-02    0.656E-02
DAV:  19    -0.326519249513E+03    0.34763E-05   -0.87618E-05 17664   0.191E-02    0.395E-02
DAV:  20    -0.326519256921E+03   -0.74080E-05   -0.96357E-05 18688   0.160E-02    0.224E-02
DAV:  21    -0.326519257739E+03   -0.81866E-06   -0.11422E-05 14848   0.457E-03    0.154E-02
DAV:  22    -0.326519257469E+03    0.27023E-06   -0.12794E-06 16384   0.204E-03    0.127E-02
DAV:  23    -0.326519257814E+03   -0.34468E-06   -0.77708E-07 18688   0.133E-03    0.548E-03
DAV:  24    -0.326519257644E+03    0.17001E-06   -0.16948E-06 18176   0.237E-03    0.265E-03
DAV:  25    -0.326519257661E+03   -0.16895E-07   -0.13016E-07 13824   0.627E-04    0.185E-03
DAV:  26    -0.326519257668E+03   -0.72760E-08   -0.31686E-08 11776   0.279E-04
   1 F= -.32651926E+03 E0= -.32651926E+03  d E =0.000000E+00  mag=     0.0000
