 vasp.5.4.4.18Apr17-6-g9f103f2a35 (build Oct 30 2023 17:30:16) complex          
  
 executed on             LinuxIFC date 2024.06.29  00:51:34
 running on  256 total cores
 distrk:  each k-point on  256 cores,    1 groups
 distr:  one band on NCORES_PER_BAND=   1 cores,  256 groups


--------------------------------------------------------------------------------------------------------


 INCAR:
 POTCAR:    PAW_PBE S 06Sep2000                   
 POTCAR:     PAW_PBE Cu_pv 06Sep2000              
 POTCAR:     PAW_PBE Fe_pv 02Aug2007              

 ----------------------------------------------------------------------------- 
|                                                                             |
|           W    W    AA    RRRRR   N    N  II  N    N   GGGG   !!!           |
|           W    W   A  A   R    R  NN   N  II  NN   N  G    G  !!!           |
|           W    W  A    A  R    R  N N  N  II  N N  N  G       !!!           |
|           W WW W  AAAAAA  RRRRR   N  N N  II  N  N N  G  GGG   !            |
|           WW  WW  A    A  R   R   N   NN  II  N   NN  G    G                |
|           W    W  A    A  R    R  N    N  II  N    N   GGGG   !!!           |
|                                                                             |
|      For optimal performance we recommend to set                            |
|        NCORE= 4 - approx SQRT( number of cores)                             |
|      NCORE specifies how many cores store one orbital (NPAR=cpu/NCORE).     |
|      This setting can  greatly improve the performance of VASP for DFT.     |
|      The default,   NCORE=1            might be grossly inefficient         |
|      on modern multi-core architectures or massively parallel machines.     |
|      Do your own testing !!!!                                               |
|      Unfortunately you need to use the default for GW and RPA calculations. |
|      (for HF NCORE is supported but not extensively tested yet)             |
|                                                                             |
 ----------------------------------------------------------------------------- 

 POTCAR:    PAW_PBE S 06Sep2000                   
   SHA256 =  0fc7481fb0695f01bdc6462160264c5c84044ae9ec85a907d398b887a2bc3132 S/
   COPYR  = (c) Copyright 06Sep2000 Georg Kresse                                
   COPYR  = This file is part of the software VASP. Any use, copying, and all ot
   COPYR  = If you do not have a valid VASP license, you may not use, copy or di
   VRHFIN =S : s2p4                                                             
   LEXCH  = PE                                                                  
   EATOM  =   276.8230 eV,   20.3459 Ry                                         
                                                                                
   TITEL  = PAW_PBE S 06Sep2000                                                 
   LULTRA =        F    use ultrasoft PP ?                                      
   IUNSCR =        1    unscreen: 0-lin 1-nonlin 2-no                           
   RPACOR =    1.500    partial core radius                                     
   POMASS =   32.066; ZVAL   =    6.000    mass and valenz                      
   RCORE  =    1.900    outmost cutoff radius                                   
   RWIGS  =    2.200; RWIGS  =    1.164    wigner-seitz radius (au A)           
   ENMAX  =  258.689; ENMIN  =  194.016 eV                                      
   ICORE  =        2    local potential                                         
   LCOR   =        T    correct aug charges                                     
   LPAW   =        T    paw PP                                                  
   EAUG   =  335.092                                                            
   DEXC   =    0.000                                                            
   RMAX   =    1.942    core radius for proj-oper                               
   RAUG   =    1.300    factor for augmentation sphere                          
   RDEP   =    1.954    radius for radial grids                                 
   RDEPT  =    1.744    core radius for aug-charge                              
                                                                                
   Atomic configuration                                                         
    6 entries                                                                   
     n  l   j            E        occ.                                          
     1  0  0.50     -2405.8406   2.0000                                         
     2  0  0.50      -211.7007   2.0000                                         
     2  1  1.50      -156.4958   6.0000                                         
     3  0  0.50       -17.2562   2.0000                                         
     3  1  0.50        -7.0085   4.0000                                         
     3  2  1.50        -6.8029   0.0000                                         
   Description                                                                  
     l       E           TYP  RCUT    TYP  RCUT                                 
     0    -17.2561641     23  1.900                                             
     0    -15.8743224     23  1.900                                             
     1     -7.0085400     23  1.900                                             
     1     -2.7779785     23  1.900                                             
     2     -6.8029130     23  1.900                                             
  local pseudopotential read in
  partial core-charges read in
  partial kinetic energy density read in
  atomic valenz-charges read in
  non local Contribution for L=           0  read in
    real space projection operators read in
  non local Contribution for L=           0  read in
    real space projection operators read in
  non local Contribution for L=           1  read in
    real space projection operators read in
  non local Contribution for L=           1  read in
    real space projection operators read in
    PAW grid and wavefunctions read in
 
   number of l-projection  operators is LMAX  =           4
   number of lm-projection operators is LMMAX =           8
 
 POTCAR:     PAW_PBE Cu_pv 06Sep2000              
   SHA256 =  cb7b504e2ea725fe1f25c85a9ac77d4012ce94cd394135b722c4e25ec297f1cb Cu
   COPYR  = (c) Copyright 06Sep2000 Georg Kresse                                
   COPYR  = This file is part of the software VASP. Any use, copying, and all ot
   COPYR  = If you do not have a valid VASP license, you may not use, copy or di
   VRHFIN =Cu: d10 p1                                                           
   LEXCH  = PE                                                                  
   EATOM  =  4120.1201 eV,  302.8203 Ry                                         
                                                                                
   TITEL  = PAW_PBE Cu_pv 06Sep2000                                             
   LULTRA =        F    use ultrasoft PP ?                                      
   IUNSCR =        1    unscreen: 0-lin 1-nonlin 2-no                           
   RPACOR =    1.500    partial core radius                                     
   POMASS =   63.546; ZVAL   =   17.000    mass and valenz                      
   RCORE  =    2.000    outmost cutoff radius                                   
   RWIGS  =    2.000; RWIGS  =    1.058    wigner-seitz radius (au A)           
   ENMAX  =  368.648; ENMIN  =  276.486 eV                                      
   RCLOC  =    1.304    cutoff for local pot                                    
   LCOR   =        T    correct aug charges                                     
   LPAW   =        T    paw PP                                                  
   EAUG   =  758.233                                                            
   DEXC   =    0.000                                                            
   RMAX   =    2.046    core radius for proj-oper                               
   RAUG   =    1.300    factor for augmentation sphere                          
   RDEP   =    2.025    radius for radial grids                                 
   RDEPT  =    1.558    core radius for aug-charge                              
                                                                                
   Atomic configuration                                                         
    8 entries                                                                   
     n  l   j            E        occ.                                          
     1  0  0.50     -8850.2467   2.0000                                         
     2  0  0.50     -1062.3498   2.0000                                         
     2  1  1.50      -916.8226   6.0000                                         
     3  0  0.50      -114.6929   2.0000                                         
     3  1  1.50       -72.1325   6.0000                                         
     3  2  2.50        -5.0394  10.0000                                         
     4  0  0.50        -4.6097   1.0000                                         
     4  3  2.50        -1.3606   0.0000                                         
   Description                                                                  
     l       E           TYP  RCUT    TYP  RCUT                                 
     1    -72.1324777     23  1.700                                             
     1     -1.3605826     23  1.700                                             
     2     -5.0393776     23  2.000                                             
     2     -6.3999602     23  2.000                                             
     0     -4.6097062     23  1.800                                             
     0     14.1620818     23  1.800                                             
  local pseudopotential read in
  partial core-charges read in
  partial kinetic energy density read in
  atomic valenz-charges read in
  non local Contribution for L=           1  read in
    real space projection operators read in
  non local Contribution for L=           1  read in
    real space projection operators read in
  non local Contribution for L=           2  read in
    real space projection operators read in
  non local Contribution for L=           2  read in
    real space projection operators read in
  non local Contribution for L=           0  read in
    real space projection operators read in
  non local Contribution for L=           0  read in
    real space projection operators read in
    PAW grid and wavefunctions read in
 
   number of l-projection  operators is LMAX  =           6
   number of lm-projection operators is LMMAX =          18
 
 POTCAR:     PAW_PBE Fe_pv 02Aug2007              
   SHA256 =  5d22e414b1f82158bf2c7ecb8b97b28fd0923e48cadc1c3bf74d524558f5dd32 Fe
   COPYR  = (c) Copyright 02Aug2007 Georg Kresse                                
   COPYR  = This file is part of the software VASP. Any use, copying, and all ot
   COPYR  = If you do not have a valid VASP license, you may not use, copy or di
   VRHFIN =Fe:  3pd7s1                                                          
   LEXCH  = PE                                                                  
   EATOM  =  2457.4239 eV,  180.6156 Ry                                         
                                                                                
   TITEL  = PAW_PBE Fe_pv 02Aug2007                                             
   LULTRA =        F    use ultrasoft PP ?                                      
   IUNSCR =        1    unscreen: 0-lin 1-nonlin 2-no                           
   RPACOR =    1.750    partial core radius                                     
   POMASS =   55.847; ZVAL   =   14.000    mass and valenz                      
   RCORE  =    2.200    outmost cutoff radius                                   
   RWIGS  =    2.200; RWIGS  =    1.164    wigner-seitz radius (au A)           
   ENMAX  =  293.238; ENMIN  =  219.928 eV                                      
   ICORE  =        3    local potential                                         
   LCOR   =        T    correct aug charges                                     
   LPAW   =        T    paw PP                                                  
   EAUG   =  578.342                                                            
   DEXC   =    0.000                                                            
   RMAX   =    2.249    core radius for proj-oper                               
   RAUG   =    1.300    factor for augmentation sphere                          
   RDEP   =    2.296    radius for radial grids                                 
   RDEPT  =    1.766    core radius for aug-charge                              
                                                                                
   Atomic configuration                                                         
    8 entries                                                                   
     n  l   j            E        occ.                                          
     1  0  0.50     -6993.8440   2.0000                                         
     2  0  0.50      -814.6047   2.0000                                         
     2  1  1.50      -693.3689   6.0000                                         
     3  0  0.50       -89.4732   2.0000                                         
     3  1  1.50       -55.6373   6.0000                                         
     3  2  2.50        -3.8151   7.0000                                         
     4  0  0.50        -4.2551   1.0000                                         
     4  3  2.50        -1.3606   0.0000                                         
   Description                                                                  
     l       E           TYP  RCUT    TYP  RCUT                                 
     1    -55.6372668     23  2.000                                             
     1     -5.4423304     23  2.000                                             
     2     -3.8151096     23  2.200                                             
     2     -5.1756922     23  2.200                                             
     0     -4.2550951     23  2.200                                             
     0     27.2116520     23  2.200                                             
     3     -1.3605826     23  2.200                                             
  local pseudopotential read in
  partial core-charges read in
  partial kinetic energy density read in
  atomic valenz-charges read in
  non local Contribution for L=           1  read in
    real space projection operators read in
  non local Contribution for L=           1  read in
    real space projection operators read in
  non local Contribution for L=           2  read in
    real space projection operators read in
  non local Contribution for L=           2  read in
    real space projection operators read in
  non local Contribution for L=           0  read in
    real space projection operators read in
  non local Contribution for L=           0  read in
    real space projection operators read in
    PAW grid and wavefunctions read in
 
   number of l-projection  operators is LMAX  =           6
   number of lm-projection operators is LMMAX =          18
 

 ----------------------------------------------------------------------------- 
|                                                                             |
|  ADVICE TO THIS USER RUNNING 'VASP/VAMP'   (HEAR YOUR MASTER'S VOICE ...):  |
|                                                                             |
|      You have a (more or less) 'large supercell' and for larger cells       |
|      it might be more efficient to use real space projection opertators     |
|      So try LREAL= Auto  in the INCAR   file.                               |
|      Mind:          For very  accurate calculation you might also keep the  |
|      reciprocal projection scheme          (i.e. LREAL=.FALSE.)             |
|                                                                             |
 ----------------------------------------------------------------------------- 


 ----------------------------------------------------------------------------- 
|                                                                             |
|  ADVICE TO THIS USER RUNNING 'VASP/VAMP'   (HEAR YOUR MASTER'S VOICE ...):  |
|                                                                             |
|      You enforced a specific xc-type in the INCAR file,                     |
|      a different type was found on the POTCAR file                          |
|          I HOPE YOU KNOW, WHAT YOU ARE  DOING                               |
|                                                                             |
 ----------------------------------------------------------------------------- 

  PAW_PBE S 06Sep2000                   :
 energy of atom  1       EATOM= -276.8230
 kinetic energy error for atom=    0.0007 (will be added to EATOM!!)
   PAW_PBE Cu_pv 06Sep2000              :
 energy of atom  2       EATOM=-4120.1201
 kinetic energy error for atom=    0.0094 (will be added to EATOM!!)
   PAW_PBE Fe_pv 02Aug2007              :
 energy of atom  3       EATOM=-2457.4239
 kinetic energy error for atom=    0.0025 (will be added to EATOM!!)
 
 
 POSCAR: Fe16 Cu16 S32                           
  positions in direct lattice
  No initial velocities read in
 exchange correlation table for  LEXCH =       14
   RHO(1)=    0.500       N(1)  =     2000
   RHO(2)=  100.500       N(2)  =     4000
 


--------------------------------------------------------------------------------------------------------


 ion  position               nearest neighbor table
   1  0.126  0.126  0.118-  37 2.25  61 2.27  41 2.28  49 2.29
   2  0.626  0.126  0.118-  38 2.25  62 2.27  42 2.28  50 2.29
   3  0.126  0.626  0.118-  39 2.25  63 2.27  43 2.28  51 2.29
   4  0.626  0.626  0.118-  40 2.25  64 2.27  44 2.28  52 2.29
   5  0.374  0.374  0.118-  39 2.25  62 2.27  41 2.28  52 2.29
   6  0.874  0.374  0.118-  40 2.25  61 2.27  42 2.28  51 2.29
   7  0.374  0.874  0.118-  37 2.25  64 2.27  43 2.28  50 2.29
   8  0.874  0.874  0.118-  38 2.25  63 2.27  44 2.28  49 2.29
   9  0.124  0.374  0.868-  41 2.25  51 2.27  45 2.28  55 2.29
  10  0.624  0.374  0.868-  42 2.25  52 2.27  46 2.28  56 2.29
  11  0.124  0.874  0.868-  43 2.25  49 2.27  47 2.28  53 2.29
  12  0.624  0.874  0.868-  44 2.25  50 2.27  48 2.28  54 2.29
  13  0.376  0.126  0.868-  41 2.25  50 2.27  46 2.28  53 2.29
  14  0.876  0.126  0.868-  42 2.25  49 2.27  45 2.28  54 2.29
  15  0.376  0.626  0.868-  43 2.25  52 2.27  48 2.28  55 2.29
  16  0.876  0.626  0.868-  44 2.25  51 2.27  47 2.28  56 2.29
  17  0.124  0.124  0.618-  45 2.25  53 2.27  33 2.28  57 2.29
  18  0.624  0.124  0.618-  46 2.25  54 2.27  34 2.28  58 2.29
  19  0.124  0.624  0.618-  47 2.25  55 2.27  35 2.28  59 2.29
  20  0.624  0.624  0.618-  48 2.25  56 2.27  36 2.28  60 2.29
  21  0.376  0.376  0.618-  46 2.25  55 2.27  36 2.28  57 2.29
  22  0.876  0.376  0.618-  45 2.25  56 2.27  35 2.28  58 2.29
  23  0.376  0.876  0.618-  48 2.25  53 2.27  34 2.28  59 2.29
  24  0.876  0.876  0.618-  47 2.25  54 2.27  33 2.28  60 2.29
  25  0.374  0.124  0.368-  34 2.25  57 2.27  37 2.28  62 2.29
  26  0.874  0.124  0.368-  33 2.25  58 2.27  38 2.28  61 2.29
  27  0.374  0.624  0.368-  36 2.25  59 2.27  39 2.28  64 2.29
  28  0.874  0.624  0.368-  35 2.25  60 2.27  40 2.28  63 2.29
  29  0.126  0.376  0.368-  35 2.25  57 2.27  39 2.28  61 2.29
  30  0.626  0.376  0.368-  36 2.25  58 2.27  40 2.28  62 2.29
  31  0.126  0.876  0.368-  33 2.25  59 2.27  37 2.28  63 2.29
  32  0.626  0.876  0.368-  34 2.25  60 2.27  38 2.28  64 2.29
  33  0.000  0.000  0.506-  26 2.25  31 2.25  17 2.28  24 2.28
  34  0.500  0.000  0.506-  25 2.25  32 2.25  18 2.28  23 2.28
  35  0.000  0.500  0.506-  28 2.25  29 2.25  19 2.28  22 2.28
  36  0.500  0.500  0.506-  27 2.25  30 2.25  20 2.28  21 2.28
  37  0.250  0.000  0.256-   1 2.25   7 2.25  25 2.28  31 2.28
  38  0.750  0.000  0.256-   2 2.25   8 2.25  26 2.28  32 2.28
  39  0.250  0.500  0.256-   3 2.25   5 2.25  27 2.28  29 2.28
  40  0.750  0.500  0.256-   4 2.25   6 2.25  28 2.28  30 2.28
  41  0.250  0.250  0.006-   9 2.25  13 2.25   1 2.28   5 2.28
  42  0.750  0.250  0.006-  10 2.25  14 2.25   2 2.28   6 2.28
  43  0.250  0.750  0.006-  11 2.25  15 2.25   3 2.28   7 2.28
  44  0.750  0.750  0.006-  12 2.25  16 2.25   4 2.28   8 2.28
  45  0.000  0.250  0.756-  17 2.25  22 2.25   9 2.28  14 2.28
  46  0.500  0.250  0.756-  18 2.25  21 2.25  10 2.28  13 2.28
  47  0.000  0.750  0.756-  19 2.25  24 2.25  11 2.28  16 2.28
  48  0.500  0.750  0.756-  20 2.25  23 2.25  12 2.28  15 2.28
  49  0.000  0.000  0.008-  11 2.27  14 2.27   1 2.29   8 2.29
  50  0.500  0.000  0.008-  12 2.27  13 2.27   2 2.29   7 2.29
  51  0.000  0.500  0.008-   9 2.27  16 2.27   3 2.29   6 2.29
  52  0.500  0.500  0.008-  10 2.27  15 2.27   4 2.29   5 2.29
  53  0.250  0.000  0.758-  17 2.27  23 2.27  11 2.29  13 2.29
  54  0.750  0.000  0.758-  18 2.27  24 2.27  12 2.29  14 2.29
  55  0.250  0.500  0.758-  19 2.27  21 2.27   9 2.29  15 2.29
  56  0.750  0.500  0.758-  20 2.27  22 2.27  10 2.29  16 2.29
  57  0.250  0.250  0.508-  25 2.27  29 2.27  17 2.29  21 2.29
  58  0.750  0.250  0.508-  26 2.27  30 2.27  18 2.29  22 2.29
  59  0.250  0.750  0.508-  27 2.27  31 2.27  19 2.29  23 2.29
  60  0.750  0.750  0.508-  28 2.27  32 2.27  20 2.29  24 2.29
  61  0.000  0.250  0.258-   1 2.27   6 2.27  26 2.29  29 2.29
  62  0.500  0.250  0.258-   2 2.27   5 2.27  25 2.29  30 2.29
  63  0.000  0.750  0.258-   3 2.27   8 2.27  28 2.29  31 2.29
  64  0.500  0.750  0.258-   4 2.27   7 2.27  27 2.29  32 2.29
 
  LATTYP: Found a base centered orthorhombic cell.
 ALAT       =    13.9248516094
 B/A-ratio  =     1.1303156081
 C/A-ratio  =     0.7498429637
  
  Lattice vectors:
  
 A1 = (  10.4879240000,   0.6415670000,   0.0000000000)
 A2 = (  -0.6415670000, -10.4879240000,   0.0000000000)
 A3 = (   0.0000000000,   0.0000000000, -10.4414520000)


Analysis of symmetry for initial positions (statically):
=====================================================================
 Subroutine PRICEL returns following result:
 
  LATTYP: Found a face centered orthorhombic cell.
 ALAT       =     6.9624258047
 B/A-ratio  =     1.1303156081
 C/A-ratio  =     1.4996859274
  
  Lattice vectors:
  
 A1 = (  -2.7823727500,  -2.7823727500,   5.2207260000)
 A2 = (  -2.4615892500,   2.4615892500,   5.2207260000)
 A3 = (  -5.2439620000,  -0.3207835000,   0.0000000000)
 
   8 primitive cells build up your supercell.
 

 Routine SETGRP: Setting up the symmetry group for a 
 base centered orthorhombic supercell.


 Subroutine GETGRP returns: Found  4 space group operations
 (whereof  2 operations were pure point group operations)
 out of a pool of  8 trial point group operations.


The static configuration has the point symmetry C_2 .
 The point group associated with its full space group is C_2v.


Analysis of symmetry for dynamics (positions and initial velocities):
=====================================================================
 Subroutine PRICEL returns following result:
 
  LATTYP: Found a face centered orthorhombic cell.
 ALAT       =     6.9624258047
 B/A-ratio  =     1.1303156081
 C/A-ratio  =     1.4996859274
  
  Lattice vectors:
  
 A1 = (  -2.7823727500,  -2.7823727500,   5.2207260000)
 A2 = (  -2.4615892500,   2.4615892500,   5.2207260000)
 A3 = (  -5.2439620000,  -0.3207835000,   0.0000000000)
 
   8 primitive cells build up your supercell.
 

 Routine SETGRP: Setting up the symmetry group for a 
 base centered orthorhombic supercell.


 Subroutine GETGRP returns: Found  4 space group operations
 (whereof  2 operations were pure point group operations)
 out of a pool of  8 trial point group operations.


The dynamic configuration has the point symmetry C_2 .
 The point group associated with its full space group is C_2v.


Analysis of structural, dynamic, and magnetic symmetry:
=====================================================================
 Subroutine PRICEL returns following result:
 
  LATTYP: Found a face centered orthorhombic cell.
 ALAT       =     6.9624258047
 B/A-ratio  =     1.1303156081
 C/A-ratio  =     1.4996859274
  
  Lattice vectors:
  
 A1 = (  -2.7823727500,  -2.7823727500,   5.2207260000)
 A2 = (  -2.4615892500,   2.4615892500,   5.2207260000)
 A3 = (  -5.2439620000,  -0.3207835000,   0.0000000000)
 
   8 primitive cells build up your supercell.
 

 Routine SETGRP: Setting up the symmetry group for a 
 base centered orthorhombic supercell.


 Subroutine GETGRP returns: Found  4 space group operations
 (whereof  2 operations were pure point group operations)
 out of a pool of  8 trial point group operations.


The magnetic configuration has the point symmetry C_2 .
 The point group associated with its full space group is C_2v.


 Subroutine INISYM returns: Found  4 space group operations
 (whereof  2 operations are pure point group operations),
 and found     8 'primitive' translations

 
 
 KPOINTS: Automatic mesh                          

Automatic generation of k-mesh.
Space group operators:
 irot       det(A)        alpha          n_x          n_y          n_z        tau_x        tau_y        tau_z
    1     1.000000     0.000001     1.000000     0.000000     0.000000     0.000000     0.000000     0.000000
    2     1.000000   180.000000     0.000000     0.000000     1.000000     0.000000     0.000000     0.000000
    3    -1.000000   180.000000     0.707107     0.707107     0.000000    -0.750000    -0.000000     0.750000
    4    -1.000000   180.000000     0.707107    -0.707107     0.000000    -0.750000    -0.000000     0.750000
 
 Subroutine IBZKPT returns following result:
 ===========================================
 
 Found      6 irreducible k-points:
 
 Following reciprocal coordinates:
            Coordinates               Weight
  0.000000  0.000000  0.000000      1.000000
  0.500000  0.000000  0.000000      2.000000
  0.500000  0.500000  0.000000      1.000000
  0.000000  0.000000  0.500000      1.000000
  0.500000  0.000000  0.500000      2.000000
  0.500000  0.500000  0.500000      1.000000
 
 Following cartesian coordinates:
            Coordinates               Weight
  0.000000  0.000000  0.000000      1.000000
  0.047853 -0.002927  0.000000      2.000000
  0.044926  0.044926  0.000000      1.000000
  0.000000  0.000000  0.047886      1.000000
  0.047853 -0.002927  0.047886      2.000000
  0.044926  0.044926  0.047886      1.000000
 
 TETIRR: Found     12 inequivalent tetrahedra from       48
 
 Subroutine IBZKPT_HF returns following result:
 ==============================================
 
 Found      8 k-points in 1st BZ
 the following      8 k-points will be used (e.g. in the exchange kernel)
 Following reciprocal coordinates:   # in IRBZ
  0.000000  0.000000  0.000000    0.12500000   1 t-inv F
  0.500000  0.000000  0.000000    0.12500000   2 t-inv F
  0.500000  0.500000  0.000000    0.12500000   3 t-inv F
  0.000000  0.000000  0.500000    0.12500000   4 t-inv F
  0.500000  0.000000  0.500000    0.12500000   5 t-inv F
  0.500000  0.500000  0.500000    0.12500000   6 t-inv F
 -0.000000 -0.500000  0.000000    0.12500000   2 t-inv F spinflp
 -0.000000 -0.500000  0.500000    0.12500000   5 t-inv F spinflp


--------------------------------------------------------------------------------------------------------




 Dimension of arrays:
   k-points           NKPTS =      6   k-points in BZ     NKDIM =      6   number of bands    NBANDS=    512
   number of dos      NEDOS =    301   number of ions     NIONS =     64
   non local maximal  LDIM  =      6   non local SUM 2l+1 LMDIM =     18
   total plane-waves  NPLWV = 829440
   max r-space proj   IRMAX =      1   max aug-charges    IRDMAX=  23034
   dimension x,y,z NGX =    96 NGY =   96 NGZ =   90
   dimension x,y,z NGXF=   192 NGYF=  192 NGZF=  180
   support grid    NGXF=   192 NGYF=  192 NGZF=  180
   ions per type =              32  16  16
   NGX,Y,Z   is equivalent  to a cutoff of  15.19, 15.19, 14.33 a.u.
   NGXF,Y,Z  is equivalent  to a cutoff of  30.38, 30.38, 28.66 a.u.

 SYSTEM =  CuFeS2                                  
 POSCAR =  Fe16 Cu16 S32                           

 Startparameter for this run:
   NWRITE =      2    write-flag & timer
   PREC   = accura    normal or accurate (medium, high low for compatibility)
   ISTART =      0    job   : 0-new  1-cont  2-samecut
   ICHARG =      1    charge: 1-file 2-atom 10-const
   ISPIN  =      2    spin polarized calculation?
   LNONCOLLINEAR =      F non collinear calculations
   LSORBIT =      F    spin-orbit coupling
   INIWAV =      1    electr: 0-lowe 1-rand  2-diag
   LASPH  =      F    aspherical Exc in radial PAW
   METAGGA=      F    non-selfconsistent MetaGGA calc.

 Electronic Relaxation 1
   ENCUT  =  700.0 eV  51.45 Ry    7.17 a.u.  22.67 22.67 22.53*2*pi/ulx,y,z
   ENINI  =  700.0     initial cutoff
   ENAUG  =  758.2 eV  augmentation charge cutoff
   NELM   =    500;   NELMIN=  2; NELMDL=  0     # of ELM steps 
   EDIFF  = 0.1E-07   stopping-criterion for ELM
   LREAL  =      F    real-space projection
   NLSPLINE    = F    spline interpolate recip. space projectors
   LCOMPAT=      F    compatible to vasp.4.4
   GGA_COMPAT  = T    GGA compatible to vasp.4.4-vasp.4.6
   LMAXPAW     = -100 max onsite density
   LMAXMIX     =    4 max onsite mixed and CHGCAR
   VOSKOWN=      0    Vosko Wilk Nusair interpolation
   ROPT   =    0.00000   0.00000   0.00000
 Ionic relaxation
   EDIFFG = -.1E-04   stopping-criterion for IOM
   NSW    =      0    number of steps for IOM
   NBLOCK =      1;   KBLOCK =      1    inner block; outer block 
   IBRION =     -1    ionic relax: 0-MD 1-quasi-New 2-CG
   NFREE  =      0    steps in history (QN), initial steepest desc. (CG)
   ISIF   =      2    stress and relaxation
   IWAVPR =     10    prediction:  0-non 1-charg 2-wave 3-comb
   ISYM   =      2    0-nonsym 1-usesym 2-fastsym
   LCORR  =      T    Harris-Foulkes like correction to forces

   POTIM  = 0.5000    time-step for ionic-motion
   TEIN   =    0.0    initial temperature
   TEBEG  =    0.0;   TEEND  =   0.0 temperature during run
   SMASS  =  -3.00    Nose mass-parameter (am)
   estimated Nose-frequenzy (Omega)   =  0.10E-29 period in steps =****** mass=  -0.252E-26a.u.
   SCALEE = 1.0000    scale energy and forces
   NPACO  =    256;   APACO  = 16.0  distance and # of slots for P.C.
   PSTRESS=    0.0 pullay stress

  Mass of Ions in am
   POMASS =  32.07 63.55 55.85
  Ionic Valenz
   ZVAL   =   6.00 17.00 14.00
  Atomic Wigner-Seitz radii
   RWIGS  =  -1.00 -1.00 -1.00
  virtual crystal weights 
   VCA    =   1.00  1.00  1.00
   NELECT =     688.0000    total number of electrons
   NUPDOWN=      -1.0000    fix difference up-down

 DOS related values:
   EMIN   =  10.00;   EMAX   =-10.00  energy-range for DOS
   EFERMI =   0.00
   ISMEAR =    -5;   SIGMA  =   0.03  broadening in eV -4-tet -1-fermi 0-gaus

 Electronic relaxation 2 (details)
   IALGO  =     38    algorithm
   LDIAG  =      T    sub-space diagonalisation (order eigenvalues)
   LSUBROT=      F    optimize rotation matrix (better conditioning)
   TURBO    =      0    0=normal 1=particle mesh
   IRESTART =      0    0=no restart 2=restart with 2 vectors
   NREBOOT  =      0    no. of reboots
   NMIN     =      0    reboot dimension
   EREF     =   0.00    reference energy to select bands
   IMIX   =      4    mixing-type and parameters
     AMIX     =   0.40;   BMIX     =  1.00
     AMIX_MAG =   1.60;   BMIX_MAG =  1.00
     AMIN     =   0.10
     WC   =   100.;   INIMIX=   1;  MIXPRE=   1;  MAXMIX= -45

 Intra band minimization:
   WEIMIN = 0.0000     energy-eigenvalue tresh-hold
   EBREAK =  0.49E-11  absolut break condition
   DEPER  =   0.30     relativ break condition  

   TIME   =   0.40     timestep for ELM

  volume/ion in A,a.u.               =      17.88       120.65
  Fermi-wavevector in a.u.,A,eV,Ry     =   1.381764  2.611154 25.977201  1.909270
  Thomas-Fermi vector in A             =   2.506518
 
 Write flags
   LWAVE        =      T    write WAVECAR
   LDOWNSAMPLE  =      F    k-point downsampling of WAVECAR
   LCHARG       =      T    write CHGCAR
   LVTOT        =      F    write LOCPOT, total local potential
   LVHAR        =      F    write LOCPOT, Hartree potential only
   LELF         =      F    write electronic localiz. function (ELF)
   LORBIT       =     11    0 simple, 1 ext, 2 COOP (PROOUT), +10 PAW based schemes


 Dipole corrections
   LMONO  =      F    monopole corrections only (constant potential shift)
   LDIPOL =      F    correct potential (dipole corrections)
   IDIPOL =      0    1-x, 2-y, 3-z, 4-all directions 
   EPSILON=  1.0000000 bulk dielectric constant

 LDA+U is selected, type is set to LDAUTYPE =  2
   angular momentum for each species LDAUL =     2    2    2
   U (eV)           for each species LDAUU =   0.0  0.1  4.7
   J (eV)           for each species LDAUJ =   0.0  0.0  0.0
 Exchange correlation treatment:
   GGA     =    PS    GGA type
   LEXCH   =    14    internal setting for exchange type
   VOSKOWN=      0    Vosko Wilk Nusair interpolation
   LHFCALC =     F    Hartree Fock is set to
   LHFONE  =     F    Hartree Fock one center treatment
   AEXX    =    0.0000 exact exchange contribution

 Linear response parameters
   LEPSILON=     F    determine dielectric tensor
   LRPA    =     F    only Hartree local field effects (RPA)
   LNABLA  =     F    use nabla operator in PAW spheres
   LVEL    =     F    velocity operator in full k-point grid
   LINTERFAST=   F  fast interpolation
   KINTER  =     0    interpolate to denser k-point grid
   CSHIFT  =0.1000    complex shift for real part using Kramers Kronig
   OMEGAMAX=  -1.0    maximum frequency
   DEG_THRESHOLD= 0.2000000E-02 threshold for treating states as degnerate
   RTIME   =   -0.100 relaxation time in fs
  (WPLASMAI=    0.000 imaginary part of plasma frequency in eV, 0.658/RTIME)
   DFIELD  = 0.0000000 0.0000000 0.0000000 field for delta impulse in time
 
 Orbital magnetization related:
   ORBITALMAG=     F  switch on orbital magnetization
   LCHIMAG   =     F  perturbation theory with respect to B field
   DQ        =  0.001000  dq finite difference perturbation B field
   LLRAUG    =     F  two centre corrections for induced B field

 PEAD related settings:
   LPEAD      =     T    switch on PEAD
   IPEAD      =     4    finite difference order for dpsi/dk
   LCALCPOL   =     T    calculate macroscopic polarization
   LCALCEPS   =     F    calculate dielectric tensor
   EFIELD_PEAD=    0.0000    0.0000    0.0000
   SKIP_EDOTP =     F
   LRPA       =     F
   SKIP_SCF   =     F


--------------------------------------------------------------------------------------------------------


 Static calculation
 charge density and potential will be updated during run
 spin polarized calculation
 Variant of blocked Davidson
 Davidson routine will perform the subspace rotation
 perform sub-space diagonalisation
    after iterative eigenvector-optimisation
 modified Broyden-mixing scheme, WC =      100.0
 initial mixing is a Kerker type mixing with AMIX =  0.4000 and BMIX =      1.0000
 Hartree-type preconditioning will be used
 using additional bands          168
 reciprocal scheme for non local part
 use partial core corrections
 calculate Harris-corrections to forces 
   (improved forces if not selfconsistent)
 use gradient corrections 
 use of overlap-Matrix (Vanderbilt PP)
 Fermi weights with tetrahedron method with Bloechl corrections


--------------------------------------------------------------------------------------------------------


  energy-cutoff  :      700.00
  volume of cell :     1144.23
      direct lattice vectors                 reciprocal lattice vectors
    10.487924000  0.641567000  0.000000000     0.095705887 -0.005854518  0.000000000
     0.641567000 10.487924000  0.000000000    -0.005854518  0.095705887  0.000000000
     0.000000000  0.000000000 10.441452000     0.000000000  0.000000000  0.095772121

  length of vectors
    10.507528636 10.507528636 10.441452000     0.095884786  0.095884786  0.095772121


 
 k-points in units of 2pi/SCALE and weight: Automatic mesh                          
   0.00000000  0.00000000  0.00000000       0.125
   0.04785294 -0.00292726  0.00000000       0.250
   0.04492568  0.04492568  0.00000000       0.125
   0.00000000  0.00000000  0.04788606       0.125
   0.04785294 -0.00292726  0.04788606       0.250
   0.04492568  0.04492568  0.04788606       0.125
 
 k-points in reciprocal lattice and weights: Automatic mesh                          
   0.00000000  0.00000000  0.00000000       0.125
   0.50000000  0.00000000  0.00000000       0.250
   0.50000000  0.50000000  0.00000000       0.125
   0.00000000  0.00000000  0.50000000       0.125
   0.50000000  0.00000000  0.50000000       0.250
   0.50000000  0.50000000  0.50000000       0.125
 
 position of ions in fractional coordinates (direct lattice) 
   0.12605100  0.12569400  0.11831000
   0.62605100  0.12569400  0.11831000
   0.12605100  0.62569400  0.11831000
   0.62605100  0.62569400  0.11831000
   0.37394900  0.37430600  0.11831000
   0.87394900  0.37430600  0.11831000
   0.37394900  0.87430600  0.11831000
   0.87394900  0.87430600  0.11831000
   0.12430600  0.37394900  0.86831000
   0.62430600  0.37394900  0.86831000
   0.12430600  0.87394900  0.86831000
   0.62430600  0.87394900  0.86831000
   0.37569400  0.12605100  0.86831000
   0.87569400  0.12605100  0.86831000
   0.37569400  0.62605100  0.86831000
   0.87569400  0.62605100  0.86831000
   0.12394900  0.12430600  0.61831000
   0.62394900  0.12430600  0.61831000
   0.12394900  0.62430600  0.61831000
   0.62394900  0.62430600  0.61831000
   0.37605100  0.37569400  0.61831000
   0.87605100  0.37569400  0.61831000
   0.37605100  0.87569400  0.61831000
   0.87605100  0.87569400  0.61831000
   0.37430600  0.12394900  0.36831000
   0.87430600  0.12394900  0.36831000
   0.37430600  0.62394900  0.36831000
   0.87430600  0.62394900  0.36831000
   0.12569400  0.37605100  0.36831000
   0.62569400  0.37605100  0.36831000
   0.12569400  0.87605100  0.36831000
   0.62569400  0.87605100  0.36831000
   0.00000000  0.00000000  0.50580300
   0.50000000  0.00000000  0.50580300
   0.00000000  0.50000000  0.50580300
   0.50000000  0.50000000  0.50580300
   0.25000000  0.00000000  0.25580300
   0.75000000  0.00000000  0.25580300
   0.25000000  0.50000000  0.25580300
   0.75000000  0.50000000  0.25580300
   0.25000000  0.25000000  0.00580300
   0.75000000  0.25000000  0.00580300
   0.25000000  0.75000000  0.00580300
   0.75000000  0.75000000  0.00580300
   0.00000000  0.25000000  0.75580300
   0.50000000  0.25000000  0.75580300
   0.00000000  0.75000000  0.75580300
   0.50000000  0.75000000  0.75580300
   0.00000000  0.00000000  0.00757800
   0.50000000  0.00000000  0.00757800
   0.00000000  0.50000000  0.00757800
   0.50000000  0.50000000  0.00757800
   0.25000000  0.00000000  0.75757800
   0.75000000  0.00000000  0.75757800
   0.25000000  0.50000000  0.75757800
   0.75000000  0.50000000  0.75757800
   0.25000000  0.25000000  0.50757800
   0.75000000  0.25000000  0.50757800
   0.25000000  0.75000000  0.50757800
   0.75000000  0.75000000  0.50757800
   0.00000000  0.25000000  0.25757800
   0.50000000  0.25000000  0.25757800
   0.00000000  0.75000000  0.25757800
   0.50000000  0.75000000  0.25757800
 
 position of ions in cartesian coordinates  (Angst):
   1.40265443  1.39913928  1.23532819
   6.64661643  1.71992278  1.23532819
   1.72343793  6.64310128  1.23532819
   6.96739993  6.96388478  1.23532819
   4.16209107  4.16560622  1.23532819
   9.40605307  4.48638972  1.23532819
   4.48287457  9.40956822  1.23532819
   9.72683657  9.73035172  1.23532819
   1.54362522  4.00169932  9.06641719
   6.78758722  4.32248282  9.06641719
   1.86440872  9.24566132  9.06641719
   7.10837072  9.56644482  9.06641719
   4.02112028  1.56304618  9.06641719
   9.26508228  1.88382968  9.06641719
   4.34190378  6.80700818  9.06641719
   9.58586578  7.12779168  9.06641719
   1.37971832  1.38323347  6.45605419
   6.62368032  1.70401697  6.45605419
   1.70050182  6.62719547  6.45605419
   6.94446382  6.94797897  6.45605419
   4.18502718  4.18151203  6.45605419
   9.42898918  4.50229553  6.45605419
   4.50581068  9.42547403  6.45605419
   9.74977268  9.74625753  6.45605419
   4.00521447  1.54011007  3.84569119
   9.24917647  1.86089357  3.84569119
   4.32599797  6.78407207  3.84569119
   9.56995997  7.10485557  3.84569119
   1.55953103  4.02463543  3.84569119
   6.80349303  4.34541893  3.84569119
   1.88031453  9.26859743  3.84569119
   7.12427653  9.58938093  3.84569119
   0.00000000  0.00000000  5.28131775
   5.24396200  0.32078350  5.28131775
   0.32078350  5.24396200  5.28131775
   5.56474550  5.56474550  5.28131775
   2.62198100  0.16039175  2.67095475
   7.86594300  0.48117525  2.67095475
   2.94276450  5.40435375  2.67095475
   8.18672650  5.72513725  2.67095475
   2.78237275  2.78237275  0.06059175
   8.02633475  3.10315625  0.06059175
   3.10315625  8.02633475  0.06059175
   8.34711825  8.34711825  0.06059175
   0.16039175  2.62198100  7.89168075
   5.40435375  2.94276450  7.89168075
   0.48117525  7.86594300  7.89168075
   5.72513725  8.18672650  7.89168075
   0.00000000  0.00000000  0.07912532
   5.24396200  0.32078350  0.07912532
   0.32078350  5.24396200  0.07912532
   5.56474550  5.56474550  0.07912532
   2.62198100  0.16039175  7.91021432
   7.86594300  0.48117525  7.91021432
   2.94276450  5.40435375  7.91021432
   8.18672650  5.72513725  7.91021432
   2.78237275  2.78237275  5.29985132
   8.02633475  3.10315625  5.29985132
   3.10315625  8.02633475  5.29985132
   8.34711825  8.34711825  5.29985132
   0.16039175  2.62198100  2.68948832
   5.40435375  2.94276450  2.68948832
   0.48117525  7.86594300  2.68948832
   5.72513725  8.18672650  2.68948832
 


--------------------------------------------------------------------------------------------------------


 k-point  1 :   0.0000 0.0000 0.0000  plane waves:   48107
 k-point  2 :   0.5000 0.0000 0.0000  plane waves:   48134
 k-point  3 :   0.5000 0.5000 0.0000  plane waves:   48168
 k-point  4 :   0.0000 0.0000 0.5000  plane waves:   48090
 k-point  5 :   0.5000 0.0000 0.5000  plane waves:   48084
 k-point  6 :   0.5000 0.5000 0.5000  plane waves:   48016

 maximum and minimum number of plane-waves per node :     48168    48016

 maximum number of plane-waves:     48168
 maximum index in each direction: 
   IXMAX=   22   IYMAX=   22   IZMAX=   22
   IXMIN=  -23   IYMIN=  -23   IZMIN=  -23


 serial   3D FFT for wavefunctions
 parallel 3D FFT for charge:
    minimum data exchange during FFTs selected (reduces bandwidth)


 total amount of memory used by VASP MPI-rank0   300225. kBytes
=======================================================================

   base      :      30000. kBytes
   nonl-proj :     174956. kBytes
   fftplans  :       4588. kBytes
   grid      :      69719. kBytes
   one-center:       1990. kBytes
   wavefun   :      18972. kBytes
 
     INWAV:  cpu time    0.0001: real time    0.0002
 Broyden mixing: mesh for mixing (old mesh)
   NGX = 45   NGY = 45   NGZ = 45
  (NGX  =192   NGY  =192   NGZ  =180)
  gives a total of  91125 points

 initial charge density was supplied:
 charge density of overlapping atoms calculated
 number of electron     688.0000000 magnetization       0.0000000
 keeping initial charge density in first step


--------------------------------------------------------------------------------------------------------


 Maximum index for augmentation-charges          895 (set IRDMAX)


--------------------------------------------------------------------------------------------------------


 First call to EWALD:  gamma=   0.169
 Maximum number of real-space cells 3x 3x 3
 Maximum number of reciprocal cells 3x 3x 3

    FEWALD:  cpu time    0.0022: real time    0.0026


--------------------------------------- Iteration      1(   1)  ---------------------------------------


    POTLOK:  cpu time    0.3417: real time    0.3743
    SETDIJ:  cpu time    0.0151: real time    0.0153
     EDDAV:  cpu time   63.4149: real time   63.9589
 BZINTS: Fermi energy: 16.876400;688.000000 electrons
         Band energy:***********;  BLOECHL correction: -0.023940
       DOS:  cpu time    0.0203: real time    0.0204
    --------------------------------------------
      LOOP:  cpu time   63.7920: real time   64.3688

 eigenvalue-minimisations  : 12288
 total energy-change (2. order) : 0.6190465E+04  (-0.5037641E+05)
 number of electron     688.0000000 magnetization       0.0000000
 augmentation part      688.0000000 magnetization       0.0000000

 Free energy of the ion-electron system (eV)
  ---------------------------------------------------
  alpha Z        PSCENC =      2369.41894642
  Ewald energy   TEWEN  =    -62652.76481051
  -Hartree energ DENC   =    -44196.96531900
  -exchange      EXHF   =         0.00000000
  -V(xc)+E(xc)   XCENC  =      3319.99754989
  PAW double counting   =     94592.23312189   -98164.79192727
  entropy T*S    EENTRO =         0.00000000
  eigenvalues    EBANDS =     -3096.72779719
  atomic energy  EATOM  =    114020.06510763
  Solvation  Ediel_sol  =         0.00000000
  ---------------------------------------------------
  free energy    TOTEN  =      6190.46487185 eV

  energy without entropy =     6190.46487185  energy(sigma->0) =     6190.46487185


--------------------------------------------------------------------------------------------------------




--------------------------------------- Iteration      1(   2)  ---------------------------------------


     EDDAV:  cpu time   71.0223: real time   71.5583
 BZINTS: Fermi energy:  6.622009;688.000000 electrons
         Band energy:***********;  BLOECHL correction:  0.000000
       DOS:  cpu time    0.0033: real time    0.0033
    --------------------------------------------
      LOOP:  cpu time   71.0255: real time   71.5616

 eigenvalue-minimisations  : 13056
 total energy-change (2. order) :-0.6278606E+04  (-0.6147015E+04)
 number of electron     688.0000000 magnetization       0.0000000
 augmentation part      688.0000000 magnetization       0.0000000

 Free energy of the ion-electron system (eV)
  ---------------------------------------------------
  alpha Z        PSCENC =      2369.41894642
  Ewald energy   TEWEN  =    -62652.76481051
  -Hartree energ DENC   =    -44196.96531900
  -exchange      EXHF   =         0.00000000
  -V(xc)+E(xc)   XCENC  =      3319.99754989
  PAW double counting   =     94592.23312189   -98164.79192727
  entropy T*S    EENTRO =         0.00000000
  eigenvalues    EBANDS =     -9375.33403843
  atomic energy  EATOM  =    114020.06510763
  Solvation  Ediel_sol  =         0.00000000
  ---------------------------------------------------
  free energy    TOTEN  =       -88.14136940 eV

  energy without entropy =      -88.14136940  energy(sigma->0) =      -88.14136940


--------------------------------------------------------------------------------------------------------




--------------------------------------- Iteration      1(   3)  ---------------------------------------


     EDDAV:  cpu time  122.6953: real time  123.5234
 BZINTS: Fermi energy:  6.184099;688.000000 electrons
         Band energy:***********;  BLOECHL correction:  0.000000
       DOS:  cpu time    0.0032: real time    0.0032
    --------------------------------------------
      LOOP:  cpu time  122.6985: real time  123.5267

 eigenvalue-minimisations  : 17408
 total energy-change (2. order) :-0.2830315E+03  (-0.2817155E+03)
 number of electron     688.0000000 magnetization       0.0000000
 augmentation part      688.0000000 magnetization       0.0000000

 Free energy of the ion-electron system (eV)
  ---------------------------------------------------
  alpha Z        PSCENC =      2369.41894642
  Ewald energy   TEWEN  =    -62652.76481051
  -Hartree energ DENC   =    -44196.96531900
  -exchange      EXHF   =         0.00000000
  -V(xc)+E(xc)   XCENC  =      3319.99754989
  PAW double counting   =     94592.23312189   -98164.79192727
  entropy T*S    EENTRO =         0.00000000
  eigenvalues    EBANDS =     -9658.36554285
  atomic energy  EATOM  =    114020.06510763
  Solvation  Ediel_sol  =         0.00000000
  ---------------------------------------------------
  free energy    TOTEN  =      -371.17287382 eV

  energy without entropy =     -371.17287382  energy(sigma->0) =     -371.17287382


--------------------------------------------------------------------------------------------------------




--------------------------------------- Iteration      1(   4)  ---------------------------------------


     EDDAV:  cpu time   82.4676: real time   83.0699
 BZINTS: Fermi energy:  6.231750;688.000000 electrons
         Band energy:***********;  BLOECHL correction:  0.000000
       DOS:  cpu time    0.0037: real time    0.0037
    --------------------------------------------
      LOOP:  cpu time   82.4712: real time   83.0735

 eigenvalue-minimisations  : 13824
 total energy-change (2. order) :-0.3939437E+01  (-0.3939192E+01)
 number of electron     688.0000000 magnetization       0.0000000
 augmentation part      688.0000000 magnetization       0.0000000

 Free energy of the ion-electron system (eV)
  ---------------------------------------------------
  alpha Z        PSCENC =      2369.41894642
  Ewald energy   TEWEN  =    -62652.76481051
  -Hartree energ DENC   =    -44196.96531900
  -exchange      EXHF   =         0.00000000
  -V(xc)+E(xc)   XCENC  =      3319.99754989
  PAW double counting   =     94592.23312189   -98164.79192727
  entropy T*S    EENTRO =         0.00000000
  eigenvalues    EBANDS =     -9662.30498005
  atomic energy  EATOM  =    114020.06510763
  Solvation  Ediel_sol  =         0.00000000
  ---------------------------------------------------
  free energy    TOTEN  =      -375.11231101 eV

  energy without entropy =     -375.11231101  energy(sigma->0) =     -375.11231101


--------------------------------------------------------------------------------------------------------




--------------------------------------- Iteration      1(   5)  ---------------------------------------


     EDDAV:  cpu time  120.9963: real time  121.8235
 BZINTS: Fermi energy:  6.206291;688.000000 electrons
         Band energy:***********;  BLOECHL correction:  0.000000
       DOS:  cpu time    0.0036: real time    0.0037
    CHARGE:  cpu time    1.1893: real time    1.1961
    MIXING:  cpu time    0.0023: real time    0.0023
    --------------------------------------------
      LOOP:  cpu time  122.1916: real time  123.0256

 eigenvalue-minimisations  : 16896
 total energy-change (2. order) :-0.1032576E+00  (-0.1032568E+00)
 number of electron     688.0000463 magnetization       0.0000000
 augmentation part      260.9526691 magnetization       0.0000000

 Broyden mixing:
  rms(total) = 0.75146E+01    rms(broyden)= 0.75146E+01
  rms(prec ) = 0.90201E+01
  weight for this iteration     100.00

 Free energy of the ion-electron system (eV)
  ---------------------------------------------------
  alpha Z        PSCENC =      2369.41894642
  Ewald energy   TEWEN  =    -62652.76481051
  -Hartree energ DENC   =    -44196.96531900
  -exchange      EXHF   =         0.00000000
  -V(xc)+E(xc)   XCENC  =      3319.99754989
  PAW double counting   =     94592.23312189   -98164.79192727
  entropy T*S    EENTRO =         0.00000000
  eigenvalues    EBANDS =     -9662.40823768
  atomic energy  EATOM  =    114020.06510763
  Solvation  Ediel_sol  =         0.00000000
  ---------------------------------------------------
  free energy    TOTEN  =      -375.21556864 eV

  energy without entropy =     -375.21556864  energy(sigma->0) =     -375.21556864


--------------------------------------------------------------------------------------------------------




--------------------------------------- Iteration      1(   6)  ---------------------------------------


    POTLOK:  cpu time    0.1427: real time    0.1453
    SETDIJ:  cpu time    0.0129: real time    0.0129
     EDDAV:  cpu time   64.8970: real time   65.3927
 BZINTS: Fermi energy:  4.369928;688.000000 electrons
         Band energy:***********;  BLOECHL correction:  0.000000
       DOS:  cpu time    0.0045: real time    0.0046
    CHARGE:  cpu time    1.1862: real time    1.1931
    MIXING:  cpu time    0.0023: real time    0.0071
    --------------------------------------------
      LOOP:  cpu time   66.2456: real time   66.7558

 eigenvalue-minimisations  : 12288
 total energy-change (2. order) : 0.4137320E+02  (-0.5947550E+02)
 number of electron     688.0000497 magnetization       0.0000000
 augmentation part      296.7520985 magnetization       0.0000000

 Broyden mixing:
  rms(total) = 0.10061E+02    rms(broyden)= 0.10061E+02
  rms(prec ) = 0.10543E+02
  weight for this iteration     100.00

 eigenvalues of (default mixing * dielectric matrix)
  average eigenvalue GAMMA=   0.1712
  0.1712

 Free energy of the ion-electron system (eV)
  ---------------------------------------------------
  alpha Z        PSCENC =      2369.41894642
  Ewald energy   TEWEN  =    -62652.76481051
  -Hartree energ DENC   =    -42232.05617273
  -exchange      EXHF   =         0.00000000
  -V(xc)+E(xc)   XCENC  =      3267.30253760
  PAW double counting   =     96378.62529517   -99736.51265714
  entropy T*S    EENTRO =         0.00000000
  eigenvalues    EBANDS =    -11747.92061011
  atomic energy  EATOM  =    114020.06510763
  Solvation  Ediel_sol  =         0.00000000
  ---------------------------------------------------
  free energy    TOTEN  =      -333.84236367 eV

  energy without entropy =     -333.84236367  energy(sigma->0) =     -333.84236367


--------------------------------------------------------------------------------------------------------




--------------------------------------- Iteration      1(   7)  ---------------------------------------


    POTLOK:  cpu time    0.1436: real time    0.1445
    SETDIJ:  cpu time    0.0129: real time    0.0130
     EDDAV:  cpu time   64.5705: real time   65.0673
 BZINTS: Fermi energy:  4.758018;688.000000 electrons
         Band energy:***********;  BLOECHL correction:  0.000000
       DOS:  cpu time    0.0032: real time    0.0032
    CHARGE:  cpu time    1.1856: real time    1.1926
    MIXING:  cpu time    0.0015: real time    0.0029
    --------------------------------------------
      LOOP:  cpu time   65.9173: real time   66.4235

 eigenvalue-minimisations  : 12288
 total energy-change (2. order) : 0.5652988E+01  (-0.1192643E+02)
 number of electron     688.0000490 magnetization      -0.0000000
 augmentation part      285.9875142 magnetization      -0.0000000

 Broyden mixing:
  rms(total) = 0.43703E+01    rms(broyden)= 0.43702E+01
  rms(prec ) = 0.44491E+01
  weight for this iteration     100.00

 eigenvalues of (default mixing * dielectric matrix)
  average eigenvalue GAMMA=   0.6152
  0.7692  0.4612

 Free energy of the ion-electron system (eV)
  ---------------------------------------------------
  alpha Z        PSCENC =      2369.41894642
  Ewald energy   TEWEN  =    -62652.76481051
  -Hartree energ DENC   =    -42727.82437476
  -exchange      EXHF   =         0.00000000
  -V(xc)+E(xc)   XCENC  =      3278.82709427
  PAW double counting   =     99809.52705796  -103325.89329933
  entropy T*S    EENTRO =         0.00000000
  eigenvalues    EBANDS =    -11099.54509728
  atomic energy  EATOM  =    114020.06510763
  Solvation  Ediel_sol  =         0.00000000
  ---------------------------------------------------
  free energy    TOTEN  =      -328.18937560 eV

  energy without entropy =     -328.18937560  energy(sigma->0) =     -328.18937560


--------------------------------------------------------------------------------------------------------




--------------------------------------- Iteration      1(   8)  ---------------------------------------


    POTLOK:  cpu time    0.1436: real time    0.1446
    SETDIJ:  cpu time    0.0132: real time    0.0132
     EDDAV:  cpu time   95.7478: real time   96.4232
 BZINTS: Fermi energy:  5.402499;688.000000 electrons
         Band energy:***********;  BLOECHL correction:  0.000000
       DOS:  cpu time    0.0040: real time    0.0040
    CHARGE:  cpu time    1.1868: real time    1.1937
    MIXING:  cpu time    0.0012: real time    0.0012
    --------------------------------------------
      LOOP:  cpu time   97.0966: real time   97.7799

 eigenvalue-minimisations  : 14848
 total energy-change (2. order) :-0.2801133E+00  (-0.3996342E+01)
 number of electron     688.0000482 magnetization      -0.0000000
 augmentation part      281.5600492 magnetization      -0.0000000

 Broyden mixing:
  rms(total) = 0.33448E+01    rms(broyden)= 0.33447E+01
  rms(prec ) = 0.36554E+01
  weight for this iteration     100.00

 eigenvalues of (default mixing * dielectric matrix)
  average eigenvalue GAMMA=   0.8523
  1.4984  0.6203  0.4381

 Free energy of the ion-electron system (eV)
  ---------------------------------------------------
  alpha Z        PSCENC =      2369.41894642
  Ewald energy   TEWEN  =    -62652.76481051
  -Hartree energ DENC   =    -42986.19106738
  -exchange      EXHF   =         0.00000000
  -V(xc)+E(xc)   XCENC  =      3291.36011269
  PAW double counting   =    105239.97168164  -108854.95136148
  entropy T*S    EENTRO =         0.00000000
  eigenvalues    EBANDS =    -10755.37809789
  atomic energy  EATOM  =    114020.06510763
  Solvation  Ediel_sol  =         0.00000000
  ---------------------------------------------------
  free energy    TOTEN  =      -328.46948889 eV

  energy without entropy =     -328.46948889  energy(sigma->0) =     -328.46948889


--------------------------------------------------------------------------------------------------------




--------------------------------------- Iteration      1(   9)  ---------------------------------------


    POTLOK:  cpu time    0.1447: real time    0.1457
    SETDIJ:  cpu time    0.0130: real time    0.0130
     EDDAV:  cpu time   89.5680: real time   90.2006
 BZINTS: Fermi energy:  4.771134;688.000000 electrons
         Band energy:***********;  BLOECHL correction:  0.000000
       DOS:  cpu time    0.0032: real time    0.0032
    CHARGE:  cpu time    1.1870: real time    1.1940
    MIXING:  cpu time    0.0014: real time    0.0014
    --------------------------------------------
      LOOP:  cpu time   90.9173: real time   91.5579

 eigenvalue-minimisations  : 14848
 total energy-change (2. order) :-0.1595039E+01  (-0.1103700E+02)
 number of electron     688.0000488 magnetization      -0.0000000
 augmentation part      282.1587630 magnetization      -0.0000000

 Broyden mixing:
  rms(total) = 0.23736E+01    rms(broyden)= 0.23735E+01
  rms(prec ) = 0.28244E+01
  weight for this iteration     100.00

 eigenvalues of (default mixing * dielectric matrix)
  average eigenvalue GAMMA=   0.9765
  2.3840  0.6170  0.5775  0.3272

 Free energy of the ion-electron system (eV)
  ---------------------------------------------------
  alpha Z        PSCENC =      2369.41894642
  Ewald energy   TEWEN  =    -62652.76481051
  -Hartree energ DENC   =    -42770.31745339
  -exchange      EXHF   =         0.00000000
  -V(xc)+E(xc)   XCENC  =      3283.90725514
  PAW double counting   =    109481.44093095  -113131.03374826
  entropy T*S    EENTRO =         0.00000000
  eigenvalues    EBANDS =    -10930.78075601
  atomic energy  EATOM  =    114020.06510763
  Solvation  Ediel_sol  =         0.00000000
  ---------------------------------------------------
  free energy    TOTEN  =      -330.06452803 eV

  energy without entropy =     -330.06452803  energy(sigma->0) =     -330.06452803


--------------------------------------------------------------------------------------------------------




--------------------------------------- Iteration      1(  10)  ---------------------------------------


    POTLOK:  cpu time    0.1422: real time    0.1438
    SETDIJ:  cpu time    0.0129: real time    0.0129
     EDDAV:  cpu time  109.6355: real time  110.3911
 BZINTS: Fermi energy:  5.131823;688.000000 electrons
         Band energy:***********;  BLOECHL correction:  0.000000
       DOS:  cpu time    0.0036: real time    0.0036
    CHARGE:  cpu time    1.1879: real time    1.1948
    MIXING:  cpu time    0.0016: real time    0.1600
    --------------------------------------------
      LOOP:  cpu time  110.9837: real time  111.9062

 eigenvalue-minimisations  : 16384
 total energy-change (2. order) : 0.3681461E+01  (-0.2101284E+01)
 number of electron     688.0000485 magnetization      -0.0000000
 augmentation part      282.4515355 magnetization      -0.0000000

 Broyden mixing:
  rms(total) = 0.27979E+00    rms(broyden)= 0.27974E+00
  rms(prec ) = 0.31920E+00
  weight for this iteration     100.00

 eigenvalues of (default mixing * dielectric matrix)
  average eigenvalue GAMMA=   0.9217
  2.3510  0.7842  0.5767  0.5767  0.3200

 Free energy of the ion-electron system (eV)
  ---------------------------------------------------
  alpha Z        PSCENC =      2369.41894642
  Ewald energy   TEWEN  =    -62652.76481051
  -Hartree energ DENC   =    -42798.04834761
  -exchange      EXHF   =         0.00000000
  -V(xc)+E(xc)   XCENC  =      3287.13159959
  PAW double counting   =    113137.88933110  -116833.95693466
  entropy T*S    EENTRO =         0.00000000
  eigenvalues    EBANDS =    -10856.11795919
  atomic energy  EATOM  =    114020.06510763
  Solvation  Ediel_sol  =         0.00000000
  ---------------------------------------------------
  free energy    TOTEN  =      -326.38306724 eV

  energy without entropy =     -326.38306724  energy(sigma->0) =     -326.38306724


--------------------------------------------------------------------------------------------------------




--------------------------------------- Iteration      1(  11)  ---------------------------------------


    POTLOK:  cpu time    0.1427: real time    0.1439
    SETDIJ:  cpu time    0.0131: real time    0.0131
     EDDAV:  cpu time  133.2803: real time  134.1913
 BZINTS: Fermi energy:  5.147755;688.000000 electrons
         Band energy:***********;  BLOECHL correction:  0.000000
       DOS:  cpu time    0.0037: real time    0.0037
    CHARGE:  cpu time    1.1868: real time    1.1936
    MIXING:  cpu time    0.0014: real time    0.0014
    --------------------------------------------
      LOOP:  cpu time  134.6280: real time  135.5470

 eigenvalue-minimisations  : 18688
 total energy-change (2. order) :-0.1127296E+00  (-0.1345069E+00)
 number of electron     688.0000484 magnetization      -0.0000000
 augmentation part      282.4070382 magnetization      -0.0000000

 Broyden mixing:
  rms(total) = 0.35496E+00    rms(broyden)= 0.35494E+00
  rms(prec ) = 0.38986E+00
  weight for this iteration     100.00

 eigenvalues of (default mixing * dielectric matrix)
  average eigenvalue GAMMA=   0.9021
  2.2396  0.8399  0.7165  0.7165  0.5677  0.3321

 Free energy of the ion-electron system (eV)
  ---------------------------------------------------
  alpha Z        PSCENC =      2369.41894642
  Ewald energy   TEWEN  =    -62652.76481051
  -Hartree energ DENC   =    -42817.85011472
  -exchange      EXHF   =         0.00000000
  -V(xc)+E(xc)   XCENC  =      3286.93643583
  PAW double counting   =    112934.71977001  -116630.83617593
  entropy T*S    EENTRO =         0.00000000
  eigenvalues    EBANDS =    -10836.18495559
  atomic energy  EATOM  =    114020.06510763
  Solvation  Ediel_sol  =         0.00000000
  ---------------------------------------------------
  free energy    TOTEN  =      -326.49579686 eV

  energy without entropy =     -326.49579686  energy(sigma->0) =     -326.49579686


--------------------------------------------------------------------------------------------------------




--------------------------------------- Iteration      1(  12)  ---------------------------------------


    POTLOK:  cpu time    0.1441: real time    0.1451
    SETDIJ:  cpu time    0.0130: real time    0.0130
     EDDAV:  cpu time  100.8894: real time  101.5960
 BZINTS: Fermi energy:  5.132762;688.000000 electrons
         Band energy:***********;  BLOECHL correction:  0.000000
       DOS:  cpu time    0.0036: real time    0.0037
    CHARGE:  cpu time    1.1861: real time    1.1931
    MIXING:  cpu time    0.0014: real time    0.0014
    --------------------------------------------
      LOOP:  cpu time  102.2376: real time  102.9522

 eigenvalue-minimisations  : 15360
 total energy-change (2. order) : 0.4251237E-02  (-0.4757599E-01)
 number of electron     688.0000485 magnetization      -0.0000000
 augmentation part      282.2776637 magnetization      -0.0000000

 Broyden mixing:
  rms(total) = 0.13397E+00    rms(broyden)= 0.13397E+00
  rms(prec ) = 0.14903E+00
  weight for this iteration     100.00

 eigenvalues of (default mixing * dielectric matrix)
  average eigenvalue GAMMA=   0.9466
  2.2648  1.1063  1.1063  0.6243  0.6243  0.5689  0.3316

 Free energy of the ion-electron system (eV)
  ---------------------------------------------------
  alpha Z        PSCENC =      2369.41894642
  Ewald energy   TEWEN  =    -62652.76481051
  -Hartree energ DENC   =    -42818.52357183
  -exchange      EXHF   =         0.00000000
  -V(xc)+E(xc)   XCENC  =      3286.43710998
  PAW double counting   =    112541.26586628  -116234.15699897
  entropy T*S    EENTRO =         0.00000000
  eigenvalues    EBANDS =    -10838.23319463
  atomic energy  EATOM  =    114020.06510763
  Solvation  Ediel_sol  =         0.00000000
  ---------------------------------------------------
  free energy    TOTEN  =      -326.49154562 eV

  energy without entropy =     -326.49154562  energy(sigma->0) =     -326.49154562


--------------------------------------------------------------------------------------------------------




--------------------------------------- Iteration      1(  13)  ---------------------------------------


    POTLOK:  cpu time    0.1426: real time    0.1435
    SETDIJ:  cpu time    0.0131: real time    0.0131
     EDDAV:  cpu time  111.9292: real time  112.6929
 BZINTS: Fermi energy:  5.134932;688.000000 electrons
         Band energy:***********;  BLOECHL correction:  0.000000
       DOS:  cpu time    0.0036: real time    0.0036
    CHARGE:  cpu time    1.1847: real time    1.1916
    MIXING:  cpu time    0.0016: real time    0.0016
    --------------------------------------------
      LOOP:  cpu time  113.2748: real time  114.0463

 eigenvalue-minimisations  : 16128
 total energy-change (2. order) :-0.1111764E-01  (-0.5089729E-02)
 number of electron     688.0000485 magnetization      -0.0000000
 augmentation part      282.2931493 magnetization      -0.0000000

 Broyden mixing:
  rms(total) = 0.90071E-01    rms(broyden)= 0.90069E-01
  rms(prec ) = 0.93676E-01
  weight for this iteration     100.00

 eigenvalues of (default mixing * dielectric matrix)
  average eigenvalue GAMMA=   1.1323
  2.5650  2.5650  0.3315  0.8414  0.8414  0.6739  0.6739  0.5665

 Free energy of the ion-electron system (eV)
  ---------------------------------------------------
  alpha Z        PSCENC =      2369.41894642
  Ewald energy   TEWEN  =    -62652.76481051
  -Hartree energ DENC   =    -42823.90857988
  -exchange      EXHF   =         0.00000000
  -V(xc)+E(xc)   XCENC  =      3286.50357545
  PAW double counting   =    112305.42420087  -115998.14355586
  entropy T*S    EENTRO =         0.00000000
  eigenvalues    EBANDS =    -10833.09754738
  atomic energy  EATOM  =    114020.06510763
  Solvation  Ediel_sol  =         0.00000000
  ---------------------------------------------------
  free energy    TOTEN  =      -326.50266326 eV

  energy without entropy =     -326.50266326  energy(sigma->0) =     -326.50266326


--------------------------------------------------------------------------------------------------------




--------------------------------------- Iteration      1(  14)  ---------------------------------------


    POTLOK:  cpu time    0.1438: real time    0.1447
    SETDIJ:  cpu time    0.0130: real time    0.0130
     EDDAV:  cpu time  106.7087: real time  107.4528
 BZINTS: Fermi energy:  5.138004;688.000000 electrons
         Band energy:***********;  BLOECHL correction:  0.000000
       DOS:  cpu time    0.0036: real time    0.0036
    CHARGE:  cpu time    1.1883: real time    1.1953
    MIXING:  cpu time    0.0015: real time    0.0016
    --------------------------------------------
      LOOP:  cpu time  108.0589: real time  108.8110

 eigenvalue-minimisations  : 15872
 total energy-change (2. order) :-0.1496727E-01  (-0.9137041E-02)
 number of electron     688.0000485 magnetization      -0.0000000
 augmentation part      282.2563337 magnetization      -0.0000000

 Broyden mixing:
  rms(total) = 0.45133E-01    rms(broyden)= 0.45124E-01
  rms(prec ) = 0.51339E-01
  weight for this iteration     100.00

 eigenvalues of (default mixing * dielectric matrix)
  average eigenvalue GAMMA=   1.0614
  2.4156  2.4156  0.9452  0.9452  0.3315  0.6478  0.6478  0.5626  0.6409

 Free energy of the ion-electron system (eV)
  ---------------------------------------------------
  alpha Z        PSCENC =      2369.41894642
  Ewald energy   TEWEN  =    -62652.76481051
  -Hartree energ DENC   =    -42833.18558812
  -exchange      EXHF   =         0.00000000
  -V(xc)+E(xc)   XCENC  =      3286.34246357
  PAW double counting   =    112036.04444931  -115727.94517727
  entropy T*S    EENTRO =         0.00000000
  eigenvalues    EBANDS =    -10824.49302154
  atomic energy  EATOM  =    114020.06510763
  Solvation  Ediel_sol  =         0.00000000
  ---------------------------------------------------
  free energy    TOTEN  =      -326.51763052 eV

  energy without entropy =     -326.51763052  energy(sigma->0) =     -326.51763052


--------------------------------------------------------------------------------------------------------




--------------------------------------- Iteration      1(  15)  ---------------------------------------


    POTLOK:  cpu time    0.1438: real time    0.1455
    SETDIJ:  cpu time    0.0129: real time    0.0130
     EDDAV:  cpu time   86.0363: real time   86.6440
 BZINTS: Fermi energy:  5.137109;688.000000 electrons
         Band energy:***********;  BLOECHL correction:  0.000000
       DOS:  cpu time    0.0037: real time    0.0037
    CHARGE:  cpu time    1.1887: real time    1.1966
    MIXING:  cpu time    0.0020: real time    0.0020
    --------------------------------------------
      LOOP:  cpu time   87.3873: real time   88.0047

 eigenvalue-minimisations  : 13824
 total energy-change (2. order) : 0.3352662E-04  (-0.6624863E-03)
 number of electron     688.0000485 magnetization       0.0000000
 augmentation part      282.2516837 magnetization       0.0000000

 Broyden mixing:
  rms(total) = 0.20993E-01    rms(broyden)= 0.20992E-01
  rms(prec ) = 0.22636E-01
  weight for this iteration     100.00

 eigenvalues of (default mixing * dielectric matrix)
  average eigenvalue GAMMA=   1.0199
  2.3512  2.3512  0.9779  0.9779  0.3315  0.6647  0.6647  0.5657  0.6574  0.6574

 Free energy of the ion-electron system (eV)
  ---------------------------------------------------
  alpha Z        PSCENC =      2369.41894642
  Ewald energy   TEWEN  =    -62652.76481051
  -Hartree energ DENC   =    -42832.32976415
  -exchange      EXHF   =         0.00000000
  -V(xc)+E(xc)   XCENC  =      3286.32287532
  PAW double counting   =    112122.43830045  -115814.65363608
  entropy T*S    EENTRO =         0.00000000
  eigenvalues    EBANDS =    -10825.01461607
  atomic energy  EATOM  =    114020.06510763
  Solvation  Ediel_sol  =         0.00000000
  ---------------------------------------------------
  free energy    TOTEN  =      -326.51759700 eV

  energy without entropy =     -326.51759700  energy(sigma->0) =     -326.51759700


--------------------------------------------------------------------------------------------------------




--------------------------------------- Iteration      1(  16)  ---------------------------------------


    POTLOK:  cpu time    0.1442: real time    0.1452
    SETDIJ:  cpu time    0.0129: real time    0.0129
     EDDAV:  cpu time  134.8977: real time  135.7809
 BZINTS: Fermi energy:  5.137113;688.000000 electrons
         Band energy:***********;  BLOECHL correction:  0.000000
       DOS:  cpu time    0.0036: real time    0.0037
    CHARGE:  cpu time    1.1870: real time    1.1938
    MIXING:  cpu time    0.0022: real time    0.0029
    --------------------------------------------
      LOOP:  cpu time  136.2476: real time  137.1395

 eigenvalue-minimisations  : 17408
 total energy-change (2. order) :-0.4976251E-03  (-0.1001945E-03)
 number of electron     688.0000485 magnetization      -0.0000000
 augmentation part      282.2530211 magnetization      -0.0000000

 Broyden mixing:
  rms(total) = 0.13990E-01    rms(broyden)= 0.13990E-01
  rms(prec ) = 0.14773E-01
  weight for this iteration     100.00

 eigenvalues of (default mixing * dielectric matrix)
  average eigenvalue GAMMA=   1.1947
  3.0401  2.2515  2.1918  0.3315  1.0275  0.8816  0.8816  0.6739  0.6739  0.5634
  0.6246

 Free energy of the ion-electron system (eV)
  ---------------------------------------------------
  alpha Z        PSCENC =      2369.41894642
  Ewald energy   TEWEN  =    -62652.76481051
  -Hartree energ DENC   =    -42832.60929890
  -exchange      EXHF   =         0.00000000
  -V(xc)+E(xc)   XCENC  =      3286.34746451
  PAW double counting   =    112136.15504820  -115828.30466474
  entropy T*S    EENTRO =         0.00000000
  eigenvalues    EBANDS =    -10824.82588723
  atomic energy  EATOM  =    114020.06510763
  Solvation  Ediel_sol  =         0.00000000
  ---------------------------------------------------
  free energy    TOTEN  =      -326.51809462 eV

  energy without entropy =     -326.51809462  energy(sigma->0) =     -326.51809462


--------------------------------------------------------------------------------------------------------




--------------------------------------- Iteration      1(  17)  ---------------------------------------


    POTLOK:  cpu time    0.1453: real time    0.1462
    SETDIJ:  cpu time    0.0130: real time    0.0130
     EDDAV:  cpu time   94.0229: real time   94.6886
 BZINTS: Fermi energy:  5.137671;688.000000 electrons
         Band energy:***********;  BLOECHL correction:  0.000000
       DOS:  cpu time    0.0037: real time    0.0037
    CHARGE:  cpu time    1.1873: real time    1.1947
    MIXING:  cpu time    0.0019: real time    0.0020
    --------------------------------------------
      LOOP:  cpu time   95.3741: real time   96.0482

 eigenvalue-minimisations  : 14592
 total energy-change (2. order) :-0.1081975E-02  (-0.6613457E-03)
 number of electron     688.0000485 magnetization      -0.0000000
 augmentation part      282.2462888 magnetization      -0.0000000

 Broyden mixing:
  rms(total) = 0.77476E-02    rms(broyden)= 0.77451E-02
  rms(prec ) = 0.83312E-02
  weight for this iteration     100.00

 eigenvalues of (default mixing * dielectric matrix)
  average eigenvalue GAMMA=   1.1995
  3.7276  2.1011  2.0536  1.0585  1.0585  0.3315  0.8780  0.6552  0.6552  0.5679
  0.6533  0.6533

 Free energy of the ion-electron system (eV)
  ---------------------------------------------------
  alpha Z        PSCENC =      2369.41894642
  Ewald energy   TEWEN  =    -62652.76481051
  -Hartree energ DENC   =    -42834.58243828
  -exchange      EXHF   =         0.00000000
  -V(xc)+E(xc)   XCENC  =      3286.40568861
  PAW double counting   =    112122.80952661  -115814.64082263
  entropy T*S    EENTRO =         0.00000000
  eigenvalues    EBANDS =    -10823.23037445
  atomic energy  EATOM  =    114020.06510763
  Solvation  Ediel_sol  =         0.00000000
  ---------------------------------------------------
  free energy    TOTEN  =      -326.51917660 eV

  energy without entropy =     -326.51917660  energy(sigma->0) =     -326.51917660


--------------------------------------------------------------------------------------------------------




--------------------------------------- Iteration      1(  18)  ---------------------------------------


    POTLOK:  cpu time    0.1433: real time    0.1442
    SETDIJ:  cpu time    0.0130: real time    0.0131
     EDDAV:  cpu time   99.3617: real time  100.0564
 BZINTS: Fermi energy:  5.137546;688.000000 electrons
         Band energy:***********;  BLOECHL correction:  0.000000
       DOS:  cpu time    0.0037: real time    0.0037
    CHARGE:  cpu time    1.1875: real time    1.1943
    MIXING:  cpu time    0.0020: real time    0.0021
    --------------------------------------------
      LOOP:  cpu time  100.7113: real time  101.4137

 eigenvalue-minimisations  : 14848
 total energy-change (2. order) :-0.7639172E-04  (-0.3109129E-04)
 number of electron     688.0000485 magnetization      -0.0000000
 augmentation part      282.2525000 magnetization      -0.0000000

 Broyden mixing:
  rms(total) = 0.65618E-02    rms(broyden)= 0.65615E-02
  rms(prec ) = 0.77582E-02
  weight for this iteration     100.00

 eigenvalues of (default mixing * dielectric matrix)
  average eigenvalue GAMMA=   1.1677
  3.8335  2.1043  2.1043  1.0528  1.0528  0.3315  0.7154  0.7154  0.8010  0.6618
  0.6618  0.5728  0.5728

 Free energy of the ion-electron system (eV)
  ---------------------------------------------------
  alpha Z        PSCENC =      2369.41894642
  Ewald energy   TEWEN  =    -62652.76481051
  -Hartree energ DENC   =    -42834.40844412
  -exchange      EXHF   =         0.00000000
  -V(xc)+E(xc)   XCENC  =      3286.40904551
  PAW double counting   =    112128.00905159  -115819.84657409
  entropy T*S    EENTRO =         0.00000000
  eigenvalues    EBANDS =    -10823.40157542
  atomic energy  EATOM  =    114020.06510763
  Solvation  Ediel_sol  =         0.00000000
  ---------------------------------------------------
  free energy    TOTEN  =      -326.51925299 eV

  energy without entropy =     -326.51925299  energy(sigma->0) =     -326.51925299


--------------------------------------------------------------------------------------------------------




--------------------------------------- Iteration      1(  19)  ---------------------------------------


    POTLOK:  cpu time    0.1447: real time    0.1456
    SETDIJ:  cpu time    0.0134: real time    0.0135
     EDDAV:  cpu time  135.7308: real time  136.6200
 BZINTS: Fermi energy:  5.137331;688.000000 electrons
         Band energy:***********;  BLOECHL correction:  0.000000
       DOS:  cpu time    0.0037: real time    0.0037
    CHARGE:  cpu time    1.1887: real time    1.1957
    MIXING:  cpu time    0.0022: real time    0.0022
    --------------------------------------------
      LOOP:  cpu time  137.0835: real time  137.9806

 eigenvalue-minimisations  : 17664
 total energy-change (2. order) : 0.3476263E-05  (-0.8761845E-05)
 number of electron     688.0000485 magnetization       0.0000000
 augmentation part      282.2525029 magnetization       0.0000000

 Broyden mixing:
  rms(total) = 0.39531E-02    rms(broyden)= 0.39530E-02
  rms(prec ) = 0.43477E-02
  weight for this iteration     100.00

 eigenvalues of (default mixing * dielectric matrix)
  average eigenvalue GAMMA=   1.2605
  3.9555  2.3908  2.3908  1.4046  1.4046  0.9733  0.9733  0.3315  0.6704  0.6704
[...]
   -.416E+02 0.997E+00 0.373E+02   0.424E+02 -.956E+00 -.377E+02   -.825E+00 -.407E-01 0.365E+00   -.209E-03 -.487E-05 -.285E-04
   -.416E+02 0.997E+00 0.373E+02   0.424E+02 -.956E+00 -.377E+02   -.825E+00 -.407E-01 0.365E+00   -.209E-03 -.487E-05 -.285E-04
   -.416E+02 0.997E+00 0.373E+02   0.424E+02 -.956E+00 -.377E+02   -.825E+00 -.407E-01 0.365E+00   -.209E-03 -.487E-05 -.285E-04
   -.416E+02 0.997E+00 0.373E+02   0.424E+02 -.956E+00 -.377E+02   -.825E+00 -.407E-01 0.365E+00   -.209E-03 -.487E-05 -.285E-04
   0.416E+02 -.997E+00 0.373E+02   -.424E+02 0.956E+00 -.377E+02   0.825E+00 0.407E-01 0.365E+00   0.209E-03 0.487E-05 -.285E-04
   0.416E+02 -.997E+00 0.373E+02   -.424E+02 0.956E+00 -.377E+02   0.825E+00 0.407E-01 0.365E+00   0.209E-03 0.487E-05 -.285E-04
   0.416E+02 -.997E+00 0.373E+02   -.424E+02 0.956E+00 -.377E+02   0.825E+00 0.407E-01 0.365E+00   0.209E-03 0.487E-05 -.285E-04
   0.416E+02 -.997E+00 0.373E+02   -.424E+02 0.956E+00 -.377E+02   0.825E+00 0.407E-01 0.365E+00   0.209E-03 0.487E-05 -.285E-04
   0.997E+00 -.416E+02 0.373E+02   -.956E+00 0.424E+02 -.377E+02   -.407E-01 -.825E+00 0.365E+00   -.487E-05 -.209E-03 -.285E-04
   0.997E+00 -.416E+02 0.373E+02   -.956E+00 0.424E+02 -.377E+02   -.407E-01 -.825E+00 0.365E+00   -.487E-05 -.209E-03 -.285E-04
   0.997E+00 -.416E+02 0.373E+02   -.956E+00 0.424E+02 -.377E+02   -.407E-01 -.825E+00 0.365E+00   -.487E-05 -.209E-03 -.285E-04
   0.997E+00 -.416E+02 0.373E+02   -.956E+00 0.424E+02 -.377E+02   -.407E-01 -.825E+00 0.365E+00   -.487E-05 -.209E-03 -.285E-04
   -.997E+00 0.416E+02 0.373E+02   0.956E+00 -.424E+02 -.377E+02   0.407E-01 0.825E+00 0.365E+00   0.487E-05 0.209E-03 -.285E-04
   -.997E+00 0.416E+02 0.373E+02   0.956E+00 -.424E+02 -.377E+02   0.407E-01 0.825E+00 0.365E+00   0.487E-05 0.209E-03 -.285E-04
   -.997E+00 0.416E+02 0.373E+02   0.956E+00 -.424E+02 -.377E+02   0.407E-01 0.825E+00 0.365E+00   0.487E-05 0.209E-03 -.285E-04
   -.997E+00 0.416E+02 0.373E+02   0.956E+00 -.424E+02 -.377E+02   0.407E-01 0.825E+00 0.365E+00   0.487E-05 0.209E-03 -.285E-04
   -.778E-07 0.183E-07 -.438E+02   -.480E-13 0.192E-12 0.420E+02   0.527E-25 -.124E-24 0.176E+01   -.197E-12 0.258E-12 0.237E-03
   -.778E-07 0.183E-07 -.438E+02   -.195E-13 0.199E-12 0.420E+02   -.662E-25 -.905E-25 0.176E+01   -.361E-12 0.293E-12 0.237E-03
   -.778E-07 0.183E-07 -.438E+02   -.764E-13 0.192E-12 0.420E+02   -.355E-25 -.258E-25 0.176E+01   -.165E-12 0.178E-12 0.237E-03
   -.778E-07 0.183E-07 -.438E+02   -.195E-13 0.171E-12 0.420E+02   0.485E-25 0.258E-25 0.176E+01   -.356E-12 0.134E-12 0.237E-03
   0.183E-07 -.778E-07 -.438E+02   0.227E-12 0.313E-12 0.420E+02   -.120E-24 -.162E-25 0.176E+01   -.887E-12 0.145E-12 0.237E-03
   0.183E-07 -.778E-07 -.438E+02   0.199E-12 0.242E-12 0.420E+02   0.937E-25 0.775E-25 0.176E+01   0.221E-12 0.120E-12 0.237E-03
   0.183E-07 -.778E-07 -.438E+02   0.213E-12 0.242E-12 0.420E+02   0.456E-25 0.969E-25 0.176E+01   -.887E-12 0.453E-13 0.237E-03
   0.183E-07 -.777E-07 -.438E+02   0.171E-12 0.256E-12 0.420E+02   0.210E-25 -.388E-25 0.176E+01   0.206E-12 -.148E-12 0.237E-03
   -.778E-07 0.183E-07 -.438E+02   -.568E-13 0.622E-13 0.420E+02   0.156E-24 -.323E-25 0.176E+01   -.721E-12 -.100E-12 0.237E-03
   -.778E-07 0.183E-07 -.438E+02   -.284E-13 0.977E-13 0.420E+02   -.396E-25 -.775E-25 0.176E+01   0.200E-12 -.296E-13 0.237E-03
   -.778E-07 0.183E-07 -.438E+02   -.853E-13 0.924E-13 0.420E+02   -.969E-26 -.905E-25 0.176E+01   -.809E-12 0.389E-12 0.237E-03
   -.778E-07 0.183E-07 -.438E+02   -.568E-13 0.128E-12 0.420E+02   -.137E-25 0.388E-25 0.176E+01   0.216E-12 0.346E-12 0.237E-03
   0.183E-07 -.778E-07 -.438E+02   0.203E-12 0.913E-13 0.420E+02   -.848E-26 0.969E-25 0.176E+01   0.142E-13 -.143E-12 0.237E-03
   0.183E-07 -.778E-07 -.438E+02   0.205E-12 0.770E-13 0.420E+02   -.121E-24 -.258E-25 0.176E+01   -.531E-12 -.983E-13 0.237E-03
   0.183E-07 -.778E-07 -.438E+02   0.153E-12 0.193E-12 0.420E+02   -.106E-24 -.582E-25 0.176E+01   -.471E-14 0.243E-12 0.237E-03
   0.183E-07 -.777E-07 -.438E+02   0.184E-12 0.936E-13 0.420E+02   0.121E-24 0.258E-25 0.176E+01   -.651E-12 0.304E-12 0.237E-03
   0.985E-09 0.960E-09 -.354E+02   -.124E-13 -.199E-12 0.333E+02   0.469E-25 0.000E+00 0.206E+01   -.847E-13 0.652E-13 0.136E-03
   0.988E-09 0.960E-09 -.354E+02   0.266E-14 -.227E-12 0.333E+02   0.114E-24 0.582E-25 0.206E+01   -.366E-12 0.114E-12 0.136E-03
   0.985E-09 0.963E-09 -.354E+02   -.533E-14 -.227E-12 0.333E+02   0.319E-25 -.743E-25 0.206E+01   -.102E-12 0.610E-13 0.136E-03
   0.989E-09 0.996E-09 -.354E+02   0.382E-13 -.227E-12 0.333E+02   0.347E-25 0.905E-25 0.206E+01   -.366E-12 0.190E-13 0.136E-03
   0.961E-09 0.985E-09 -.354E+02   -.146E-12 -.888E-13 0.333E+02   0.872E-25 0.646E-25 0.206E+01   -.504E-12 0.158E-12 0.136E-03
   0.964E-09 0.985E-09 -.354E+02   -.888E-13 -.888E-13 0.333E+02   -.283E-25 0.258E-25 0.206E+01   0.450E-13 0.126E-12 0.136E-03
   0.961E-09 0.978E-09 -.354E+02   -.149E-12 -.117E-12 0.333E+02   0.380E-25 0.646E-26 0.206E+01   -.514E-12 0.175E-12 0.136E-03
   0.963E-09 0.971E-09 -.354E+02   -.149E-12 -.117E-12 0.333E+02   -.258E-25 -.103E-24 0.206E+01   0.662E-13 0.124E-12 0.136E-03
   0.985E-09 0.950E-09 -.354E+02   -.355E-13 -.142E-12 0.333E+02   0.303E-25 0.452E-25 0.206E+01   -.563E-12 -.531E-13 0.136E-03
   0.987E-09 0.921E-09 -.354E+02   0.711E-14 -.169E-12 0.333E+02   0.404E-26 0.517E-25 0.206E+01   0.694E-13 -.101E-12 0.136E-03
   0.986E-09 0.949E-09 -.354E+02   -.711E-13 -.180E-12 0.333E+02   -.525E-25 0.258E-25 0.206E+01   -.624E-12 0.202E-12 0.136E-03
   0.990E-09 0.973E-09 -.354E+02   -.284E-13 -.950E-13 0.333E+02   0.565E-26 0.388E-25 0.206E+01   0.118E-12 0.122E-12 0.136E-03
   0.960E-09 0.986E-09 -.354E+02   -.229E-12 -.129E-12 0.333E+02   0.145E-25 0.129E-25 0.206E+01   -.294E-12 0.329E-13 0.136E-03
   0.964E-09 0.102E-08 -.354E+02   -.202E-12 -.419E-13 0.333E+02   -.154E-25 -.388E-25 0.206E+01   -.103E-12 0.678E-13 0.136E-03
   0.960E-09 0.989E-09 -.354E+02   -.132E-12 -.549E-13 0.333E+02   0.747E-25 -.646E-26 0.206E+01   -.246E-12 0.283E-12 0.136E-03
   0.963E-09 0.991E-09 -.354E+02   -.119E-12 -.545E-13 0.333E+02   0.533E-25 0.000E+00 0.206E+01   -.215E-12 0.269E-12 0.136E-03
 -----------------------------------------------------------------------------------------------
   -.605E-07 -.603E-07 -.728E+02   -.139E-12 -.145E-12 0.000E+00   -.569E-15 0.333E-15 0.728E+02   -.867E-11 0.340E-11 0.506E-02
 
 
 POSITION                                       TOTAL-FORCE (eV/Angst)
 -----------------------------------------------------------------------------------
      1.40265      1.39914      1.23533        -0.000629     -0.000433      0.000298
      6.64662      1.71992      1.23533        -0.000629     -0.000433      0.000298
      1.72344      6.64310      1.23533        -0.000629     -0.000433      0.000298
      6.96740      6.96388      1.23533        -0.000629     -0.000433      0.000298
      4.16209      4.16561      1.23533         0.000629      0.000433      0.000298
      9.40605      4.48639      1.23533         0.000629      0.000433      0.000298
      4.48287      9.40957      1.23533         0.000629      0.000433      0.000298
      9.72684      9.73035      1.23533         0.000629      0.000433      0.000298
      1.54363      4.00170      9.06642         0.000433      0.000629      0.000298
      6.78759      4.32248      9.06642         0.000433      0.000629      0.000298
      1.86441      9.24566      9.06642         0.000433      0.000629      0.000298
      7.10837      9.56644      9.06642         0.000433      0.000629      0.000298
      4.02112      1.56305      9.06642        -0.000433     -0.000629      0.000298
      9.26508      1.88383      9.06642        -0.000433     -0.000629      0.000298
      4.34190      6.80701      9.06642        -0.000433     -0.000629      0.000298
      9.58587      7.12779      9.06642        -0.000433     -0.000629      0.000298
      1.37972      1.38323      6.45605         0.000629      0.000433      0.000298
      6.62368      1.70402      6.45605         0.000629      0.000433      0.000298
      1.70050      6.62720      6.45605         0.000629      0.000433      0.000298
      6.94446      6.94798      6.45605         0.000629      0.000433      0.000298
      4.18503      4.18151      6.45605        -0.000629     -0.000433      0.000298
      9.42899      4.50230      6.45605        -0.000629     -0.000433      0.000298
      4.50581      9.42547      6.45605        -0.000629     -0.000433      0.000298
      9.74977      9.74626      6.45605        -0.000629     -0.000433      0.000298
      4.00521      1.54011      3.84569         0.000433      0.000629      0.000298
      9.24918      1.86089      3.84569         0.000433      0.000629      0.000298
      4.32600      6.78407      3.84569         0.000433      0.000629      0.000298
      9.56996      7.10486      3.84569         0.000433      0.000629      0.000298
      1.55953      4.02464      3.84569        -0.000433     -0.000629      0.000298
      6.80349      4.34542      3.84569        -0.000433     -0.000629      0.000298
      1.88031      9.26860      3.84569        -0.000433     -0.000629      0.000298
      7.12428      9.58938      3.84569        -0.000433     -0.000629      0.000298
      0.00000      0.00000      5.28132         0.000000     -0.000000     -0.000512
      5.24396      0.32078      5.28132         0.000000     -0.000000     -0.000512
      0.32078      5.24396      5.28132         0.000000     -0.000000     -0.000512
      5.56475      5.56475      5.28132         0.000000     -0.000000     -0.000512
      2.62198      0.16039      2.67095         0.000000     -0.000000     -0.000512
      7.86594      0.48118      2.67095         0.000000     -0.000000     -0.000512
      2.94276      5.40435      2.67095         0.000000     -0.000000     -0.000512
      8.18673      5.72514      2.67095         0.000000     -0.000000     -0.000512
      2.78237      2.78237      0.06059         0.000000     -0.000000     -0.000512
      8.02633      3.10316      0.06059         0.000000     -0.000000     -0.000512
      3.10316      8.02633      0.06059         0.000000     -0.000000     -0.000512
      8.34712      8.34712      0.06059         0.000000     -0.000000     -0.000512
      0.16039      2.62198      7.89168         0.000000     -0.000000     -0.000512
      5.40435      2.94276      7.89168         0.000000     -0.000000     -0.000512
      0.48118      7.86594      7.89168         0.000000     -0.000000     -0.000512
      5.72514      8.18673      7.89168         0.000000     -0.000000     -0.000512
      0.00000      0.00000      0.07913         0.000000     -0.000000     -0.000084
      5.24396      0.32078      0.07913         0.000000     -0.000000     -0.000084
      0.32078      5.24396      0.07913         0.000000     -0.000000     -0.000084
      5.56475      5.56475      0.07913         0.000000     -0.000000     -0.000084
      2.62198      0.16039      7.91021         0.000000     -0.000000     -0.000084
      7.86594      0.48118      7.91021         0.000000     -0.000000     -0.000084
      2.94276      5.40435      7.91021         0.000000     -0.000000     -0.000084
      8.18673      5.72514      7.91021         0.000000     -0.000000     -0.000084
      2.78237      2.78237      5.29985         0.000000     -0.000000     -0.000084
      8.02633      3.10316      5.29985         0.000000     -0.000000     -0.000084
      3.10316      8.02633      5.29985         0.000000     -0.000000     -0.000084
      8.34712      8.34712      5.29985         0.000000     -0.000000     -0.000084
      0.16039      2.62198      2.68949         0.000000     -0.000000     -0.000084
      5.40435      2.94276      2.68949         0.000000     -0.000000     -0.000084
      0.48118      7.86594      2.68949         0.000000     -0.000000     -0.000084
      5.72514      8.18673      2.68949         0.000000     -0.000000     -0.000084
 -----------------------------------------------------------------------------------
    total drift:                               -0.000000     -0.000000     -0.009955


--------------------------------------------------------------------------------------------------------



  FREE ENERGIE OF THE ION-ELECTRON SYSTEM (eV)
  ---------------------------------------------------
  free  energy   TOTEN  =      -326.51925767 eV

  energy  without entropy=     -326.51925767  energy(sigma->0) =     -326.51925767
 


--------------------------------------------------------------------------------------------------------


    POTLOK:  cpu time    0.1561: real time    0.1570


--------------------------------------------------------------------------------------------------------


 writing wavefunctions
     LOOP+:  cpu time 2852.9313: real time 2873.0995
    4ORBIT:  cpu time    0.0000: real time    0.0000
 


 total charge     
 
# of ion       s       p       d       tot
------------------------------------------
    1        1.315   2.405   0.000   3.720
    2        1.315   2.405   0.000   3.720
    3        1.315   2.405   0.000   3.720
    4        1.315   2.405   0.000   3.720
    5        1.315   2.405   0.000   3.720
    6        1.315   2.405   0.000   3.720
    7        1.315   2.405   0.000   3.720
    8        1.315   2.405   0.000   3.720
    9        1.315   2.406   0.000   3.721
   10        1.315   2.406   0.000   3.721
   11        1.315   2.406   0.000   3.721
   12        1.315   2.406   0.000   3.721
   13        1.315   2.406   0.000   3.721
   14        1.315   2.406   0.000   3.721
   15        1.315   2.406   0.000   3.721
   16        1.315   2.406   0.000   3.721
   17        1.315   2.405   0.000   3.720
   18        1.315   2.405   0.000   3.720
   19        1.315   2.405   0.000   3.720
   20        1.315   2.405   0.000   3.720
   21        1.315   2.405   0.000   3.720
   22        1.315   2.405   0.000   3.720
   23        1.315   2.405   0.000   3.720
   24        1.315   2.405   0.000   3.720
   25        1.315   2.406   0.000   3.721
   26        1.315   2.406   0.000   3.721
   27        1.315   2.406   0.000   3.721
   28        1.315   2.406   0.000   3.721
   29        1.315   2.406   0.000   3.721
   30        1.315   2.406   0.000   3.721
   31        1.315   2.406   0.000   3.721
   32        1.315   2.406   0.000   3.721
   33        0.258   6.201   8.916  15.375
   34        0.258   6.201   8.916  15.375
   35        0.258   6.201   8.916  15.375
   36        0.258   6.201   8.916  15.375
   37        0.258   6.201   8.917  15.375
   38        0.258   6.201   8.917  15.375
   39        0.258   6.201   8.917  15.375
   40        0.258   6.201   8.917  15.375
   41        0.258   6.201   8.916  15.375
   42        0.258   6.201   8.916  15.375
   43        0.258   6.201   8.916  15.375
   44        0.258   6.201   8.916  15.375
   45        0.258   6.201   8.917  15.375
   46        0.258   6.201   8.917  15.375
   47        0.258   6.201   8.917  15.375
   48        0.258   6.201   8.917  15.375
   49        0.346   6.345   5.823  12.514
   50        0.346   6.345   5.823  12.514
   51        0.346   6.345   5.823  12.514
   52        0.346   6.345   5.823  12.514
   53        0.346   6.345   5.823  12.514
   54        0.346   6.345   5.823  12.514
   55        0.346   6.345   5.823  12.514
   56        0.346   6.345   5.823  12.514
   57        0.346   6.345   5.823  12.514
   58        0.346   6.345   5.823  12.514
   59        0.346   6.345   5.823  12.514
   60        0.346   6.345   5.823  12.514
   61        0.346   6.345   5.823  12.514
   62        0.346   6.345   5.823  12.514
   63        0.346   6.345   5.823  12.514
   64        0.346   6.345   5.823  12.514
--------------------------------------------------
tot         51.751 277.699 235.830 565.280
 


 magnetization (x)
 
# of ion       s       p       d       tot
------------------------------------------
    1       -0.002  -0.030   0.000  -0.031
    2       -0.002  -0.030   0.000  -0.031
    3       -0.002  -0.030   0.000  -0.031
    4       -0.002  -0.030   0.000  -0.031
    5       -0.002  -0.030   0.000  -0.031
    6       -0.002  -0.030   0.000  -0.031
    7       -0.002  -0.030   0.000  -0.031
    8       -0.002  -0.030   0.000  -0.031
    9        0.001   0.030   0.000   0.031
   10        0.001   0.030   0.000   0.031
   11        0.001   0.030   0.000   0.031
   12        0.001   0.030   0.000   0.031
   13        0.001   0.030   0.000   0.031
   14        0.001   0.030   0.000   0.031
   15        0.001   0.030   0.000   0.031
   16        0.001   0.030   0.000   0.031
   17       -0.002  -0.030   0.000  -0.031
   18       -0.002  -0.030   0.000  -0.031
   19       -0.002  -0.030   0.000  -0.031
   20       -0.002  -0.030   0.000  -0.031
   21       -0.002  -0.030   0.000  -0.031
   22       -0.002  -0.030   0.000  -0.031
   23       -0.002  -0.030   0.000  -0.031
   24       -0.002  -0.030   0.000  -0.031
   25        0.001   0.030   0.000   0.031
   26        0.001   0.030   0.000   0.031
   27        0.001   0.030   0.000   0.031
   28        0.001   0.030   0.000   0.031
   29        0.001   0.030   0.000   0.031
   30        0.001   0.030   0.000   0.031
   31        0.001   0.030   0.000   0.031
   32        0.001   0.030   0.000   0.031
   33        0.000  -0.001   0.004   0.004
   34        0.000  -0.001   0.004   0.004
   35        0.000  -0.001   0.004   0.004
   36        0.000  -0.001   0.004   0.004
   37        0.000   0.001  -0.005  -0.004
   38        0.000   0.001  -0.005  -0.004
   39        0.000   0.001  -0.005  -0.004
   40        0.000   0.001  -0.005  -0.004
   41        0.000  -0.001   0.004   0.004
   42        0.000  -0.001   0.004   0.004
   43        0.000  -0.001   0.004   0.004
   44        0.000  -0.001   0.004   0.004
   45        0.000   0.001  -0.005  -0.004
   46        0.000   0.001  -0.005  -0.004
   47        0.000   0.001  -0.005  -0.004
   48        0.000   0.001  -0.005  -0.004
   49        0.020   0.053   3.667   3.740
   50        0.020   0.053   3.667   3.740
   51        0.020   0.053   3.667   3.740
   52        0.020   0.053   3.667   3.740
   53       -0.020  -0.053  -3.667  -3.739
   54       -0.020  -0.053  -3.667  -3.739
   55       -0.020  -0.053  -3.667  -3.739
   56       -0.020  -0.053  -3.667  -3.739
   57        0.020   0.053   3.667   3.740
   58        0.020   0.053   3.667   3.740
   59        0.020   0.053   3.667   3.740
   60        0.020   0.053   3.667   3.740
   61       -0.020  -0.053  -3.667  -3.739
   62       -0.020  -0.053  -3.667  -3.739
   63       -0.020  -0.053  -3.667  -3.739
   64       -0.020  -0.053  -3.667  -3.739
--------------------------------------------------
tot         -0.002   0.002  -0.002  -0.002
 
 BZINTS: Fermi energy:  5.136985;688.000000 electrons
         Band energy:***********;  BLOECHL correction:  0.000000

 total amount of memory used by VASP MPI-rank0   300225. kBytes
=======================================================================

   base      :      30000. kBytes
   nonl-proj :     174956. kBytes
   fftplans  :       4588. kBytes
   grid      :      69719. kBytes
   one-center:       1990. kBytes
   wavefun   :      18972. kBytes
 
  
  
 General timing and accounting informations for this job:
 ========================================================
  
                  Total CPU time used (sec):     2897.038
                            User time (sec):     2886.476
                          System time (sec):       10.562
                         Elapsed time (sec):     2918.840
  
                   Maximum memory used (kb):      666976.
                   Average memory used (kb):           0.
  
                          Minor page faults:       594224
                          Major page faults:         5777
                 Voluntary context switches:         6857
