       N       E                     dE             d eps       ncg     rms          rms(c)
DAV:   1     0.619951259922E+04    0.61995E+04   -0.50386E+05 12288   0.194E+03
DAV:   2    -0.886006344305E+02   -0.62881E+04   -0.61573E+04 13056   0.440E+02
DAV:   3    -0.372207076544E+03   -0.28361E+03   -0.28231E+03 17920   0.102E+02
DAV:   4    -0.376134503369E+03   -0.39274E+01   -0.39272E+01 13056   0.122E+01
DAV:   5    -0.376238798971E+03   -0.10430E+00   -0.10429E+00 17664   0.202E+00    0.750E+01
DAV:   6    -0.334717117780E+03    0.41522E+02   -0.59030E+02 12288   0.813E+01    0.100E+02
DAV:   7    -0.329615091556E+03    0.51020E+01   -0.11204E+02 12288   0.273E+01    0.437E+01
DAV:   8    -0.329591169282E+03    0.23922E-01   -0.36061E+01 16384   0.207E+01    0.322E+01
DAV:   9    -0.331427166728E+03   -0.18360E+01   -0.10089E+02 15616   0.241E+01    0.235E+01
DAV:  10    -0.327741416125E+03    0.36858E+01   -0.21489E+01 16128   0.157E+01    0.277E+00
DAV:  11    -0.327864131476E+03   -0.12272E+00   -0.12651E+00 16896   0.185E+00    0.355E+00
DAV:  12    -0.327853355827E+03    0.10776E-01   -0.49279E-01 15872   0.180E+00    0.133E+00
DAV:  13    -0.327858489250E+03   -0.51334E-02   -0.49561E-02 14848   0.403E-01    0.915E-01
DAV:  14    -0.327868322395E+03   -0.98331E-02   -0.52787E-02 16896   0.371E-01    0.402E-01
DAV:  15    -0.327868055556E+03    0.26684E-03   -0.51938E-03 13824   0.182E-01    0.169E-01
DAV:  16    -0.327868190115E+03   -0.13456E-03   -0.42420E-04 17408   0.296E-02    0.123E-01
DAV:  17    -0.327868663263E+03   -0.47315E-03   -0.19672E-03 14080   0.593E-02    0.888E-02
DAV:  18    -0.327868721311E+03   -0.58048E-04   -0.17008E-04 15872   0.220E-02    0.497E-02
DAV:  19    -0.327868725973E+03   -0.46622E-05   -0.41421E-05 15616   0.991E-03    0.298E-02
DAV:  20    -0.327868729290E+03   -0.33169E-05   -0.13091E-05 15872   0.372E-03    0.228E-02
DAV:  21    -0.327868729057E+03    0.23321E-06   -0.32551E-05 16384   0.931E-03    0.140E-02
DAV:  22    -0.327868729606E+03   -0.54891E-06   -0.30213E-06 14336   0.438E-03    0.118E-02
DAV:  23    -0.327868729934E+03   -0.32819E-06   -0.44591E-07 16384   0.113E-03    0.744E-03
DAV:  24    -0.327868729808E+03    0.12646E-06   -0.60947E-07 17664   0.152E-03    0.201E-03
DAV:  25    -0.327868729759E+03    0.48443E-07   -0.28146E-07 15872   0.951E-04    0.109E-03
DAV:  26    -0.327868729737E+03    0.22192E-07   -0.33635E-08 14080   0.357E-04    0.616E-04
DAV:  27    -0.327868729788E+03   -0.50641E-07   -0.10798E-08 11008   0.138E-04    0.456E-04
DAV:  28    -0.327868729811E+03   -0.23632E-07   -0.47887E-09 11264   0.838E-05    0.328E-04
DAV:  29    -0.327868729807E+03    0.38417E-08    0.56433E-10  9472   0.436E-05
   1 F= -.32786873E+03 E0= -.32786873E+03  d E =0.000000E+00  mag=     0.0000
