       N       E                     dE             d eps       ncg     rms          rms(c)
DAV:   1     0.599336242748E+04    0.59934E+04   -0.51871E+05 12288   0.197E+03
DAV:   2    -0.138628126424E+03   -0.61320E+04   -0.60262E+04 14080   0.447E+02
DAV:   3    -0.379792724662E+03   -0.24116E+03   -0.24051E+03 16128   0.963E+01
DAV:   4    -0.383188428199E+03   -0.33957E+01   -0.33955E+01 15616   0.116E+01
DAV:   5    -0.383295893649E+03   -0.10747E+00   -0.10747E+00 15360   0.200E+00    0.588E+01
DAV:   6    -0.342032925869E+03    0.41263E+02   -0.61016E+01 16896   0.220E+01    0.347E+01
DAV:   7    -0.332399346297E+03    0.96336E+01   -0.57843E+01 16128   0.256E+01    0.354E+01
DAV:   8    -0.328988935862E+03    0.34104E+01   -0.57804E+01 16640   0.185E+01    0.142E+01
DAV:   9    -0.328062594607E+03    0.92634E+00   -0.15624E+01 15616   0.130E+01    0.803E+00
DAV:  10    -0.327981978539E+03    0.80616E-01   -0.37651E+00 17152   0.452E+00    0.367E+00
DAV:  11    -0.328047082838E+03   -0.65104E-01   -0.50208E-01 16896   0.151E+00    0.165E+00
DAV:  12    -0.328087976388E+03   -0.40894E-01   -0.14345E-01 16896   0.676E-01    0.843E-01
DAV:  13    -0.328098367566E+03   -0.10391E-01   -0.35940E-02 16128   0.420E-01    0.421E-01
DAV:  14    -0.328103532709E+03   -0.51651E-02   -0.12225E-02 14848   0.123E-01    0.260E-01
DAV:  15    -0.328106805679E+03   -0.32730E-02   -0.10573E-02 15872   0.106E-01    0.132E-01
DAV:  16    -0.328107710090E+03   -0.90441E-03   -0.26895E-03 13824   0.603E-02    0.885E-02
DAV:  17    -0.328108182707E+03   -0.47262E-03   -0.23272E-03 16384   0.441E-02    0.540E-02
DAV:  18    -0.328108269270E+03   -0.86563E-04   -0.64650E-04 14336   0.304E-02    0.233E-02
DAV:  19    -0.328108276811E+03   -0.75414E-05   -0.48178E-05 15104   0.988E-03    0.166E-02
DAV:  20    -0.328108279571E+03   -0.27596E-05   -0.15569E-05 17408   0.473E-03    0.751E-03
DAV:  21    -0.328108280284E+03   -0.71342E-06   -0.39671E-06 14592   0.261E-03    0.385E-03
DAV:  22    -0.328108280267E+03    0.17506E-07   -0.30462E-07 14848   0.941E-04    0.276E-03
DAV:  23    -0.328108280276E+03   -0.97352E-08   -0.49093E-08 16384   0.317E-04
   1 F= -.32810828E+03 E0= -.32810828E+03  d E =0.000000E+00  mag=     0.0000
