 vasp.5.4.4.18Apr17-6-g9f103f2a35 (build Oct 30 2023 17:30:16) complex          
  
 executed on             LinuxIFC date 2024.06.29  00:51:34
 running on  256 total cores
 distrk:  each k-point on  256 cores,    1 groups
 distr:  one band on NCORES_PER_BAND=   1 cores,  256 groups


--------------------------------------------------------------------------------------------------------


 INCAR:
 POTCAR:    PAW_PBE S 06Sep2000                   
 POTCAR:     PAW_PBE Cu_pv 06Sep2000              
 POTCAR:     PAW_PBE Fe_pv 02Aug2007              

 ----------------------------------------------------------------------------- 
|                                                                             |
|           W    W    AA    RRRRR   N    N  II  N    N   GGGG   !!!           |
|           W    W   A  A   R    R  NN   N  II  NN   N  G    G  !!!           |
|           W    W  A    A  R    R  N N  N  II  N N  N  G       !!!           |
|           W WW W  AAAAAA  RRRRR   N  N N  II  N  N N  G  GGG   !            |
|           WW  WW  A    A  R   R   N   NN  II  N   NN  G    G                |
|           W    W  A    A  R    R  N    N  II  N    N   GGGG   !!!           |
|                                                                             |
|      For optimal performance we recommend to set                            |
|        NCORE= 4 - approx SQRT( number of cores)                             |
|      NCORE specifies how many cores store one orbital (NPAR=cpu/NCORE).     |
|      This setting can  greatly improve the performance of VASP for DFT.     |
|      The default,   NCORE=1            might be grossly inefficient         |
|      on modern multi-core architectures or massively parallel machines.     |
|      Do your own testing !!!!                                               |
|      Unfortunately you need to use the default for GW and RPA calculations. |
|      (for HF NCORE is supported but not extensively tested yet)             |
|                                                                             |
 ----------------------------------------------------------------------------- 

 POTCAR:    PAW_PBE S 06Sep2000                   
   SHA256 =  0fc7481fb0695f01bdc6462160264c5c84044ae9ec85a907d398b887a2bc3132 S/
   COPYR  = (c) Copyright 06Sep2000 Georg Kresse                                
   COPYR  = This file is part of the software VASP. Any use, copying, and all ot
   COPYR  = If you do not have a valid VASP license, you may not use, copy or di
   VRHFIN =S : s2p4                                                             
   LEXCH  = PE                                                                  
   EATOM  =   276.8230 eV,   20.3459 Ry                                         
                                                                                
   TITEL  = PAW_PBE S 06Sep2000                                                 
   LULTRA =        F    use ultrasoft PP ?                                      
   IUNSCR =        1    unscreen: 0-lin 1-nonlin 2-no                           
   RPACOR =    1.500    partial core radius                                     
   POMASS =   32.066; ZVAL   =    6.000    mass and valenz                      
   RCORE  =    1.900    outmost cutoff radius                                   
   RWIGS  =    2.200; RWIGS  =    1.164    wigner-seitz radius (au A)           
   ENMAX  =  258.689; ENMIN  =  194.016 eV                                      
   ICORE  =        2    local potential                                         
   LCOR   =        T    correct aug charges                                     
   LPAW   =        T    paw PP                                                  
   EAUG   =  335.092                                                            
   DEXC   =    0.000                                                            
   RMAX   =    1.942    core radius for proj-oper                               
   RAUG   =    1.300    factor for augmentation sphere                          
   RDEP   =    1.954    radius for radial grids                                 
   RDEPT  =    1.744    core radius for aug-charge                              
                                                                                
   Atomic configuration                                                         
    6 entries                                                                   
     n  l   j            E        occ.                                          
     1  0  0.50     -2405.8406   2.0000                                         
     2  0  0.50      -211.7007   2.0000                                         
     2  1  1.50      -156.4958   6.0000                                         
     3  0  0.50       -17.2562   2.0000                                         
     3  1  0.50        -7.0085   4.0000                                         
     3  2  1.50        -6.8029   0.0000                                         
   Description                                                                  
     l       E           TYP  RCUT    TYP  RCUT                                 
     0    -17.2561641     23  1.900                                             
     0    -15.8743224     23  1.900                                             
     1     -7.0085400     23  1.900                                             
     1     -2.7779785     23  1.900                                             
     2     -6.8029130     23  1.900                                             
  local pseudopotential read in
  partial core-charges read in
  partial kinetic energy density read in
  atomic valenz-charges read in
  non local Contribution for L=           0  read in
    real space projection operators read in
  non local Contribution for L=           0  read in
    real space projection operators read in
  non local Contribution for L=           1  read in
    real space projection operators read in
  non local Contribution for L=           1  read in
    real space projection operators read in
    PAW grid and wavefunctions read in
 
   number of l-projection  operators is LMAX  =           4
   number of lm-projection operators is LMMAX =           8
 
 POTCAR:     PAW_PBE Cu_pv 06Sep2000              
   SHA256 =  cb7b504e2ea725fe1f25c85a9ac77d4012ce94cd394135b722c4e25ec297f1cb Cu
   COPYR  = (c) Copyright 06Sep2000 Georg Kresse                                
   COPYR  = This file is part of the software VASP. Any use, copying, and all ot
   COPYR  = If you do not have a valid VASP license, you may not use, copy or di
   VRHFIN =Cu: d10 p1                                                           
   LEXCH  = PE                                                                  
   EATOM  =  4120.1201 eV,  302.8203 Ry                                         
                                                                                
   TITEL  = PAW_PBE Cu_pv 06Sep2000                                             
   LULTRA =        F    use ultrasoft PP ?                                      
   IUNSCR =        1    unscreen: 0-lin 1-nonlin 2-no                           
   RPACOR =    1.500    partial core radius                                     
   POMASS =   63.546; ZVAL   =   17.000    mass and valenz                      
   RCORE  =    2.000    outmost cutoff radius                                   
   RWIGS  =    2.000; RWIGS  =    1.058    wigner-seitz radius (au A)           
   ENMAX  =  368.648; ENMIN  =  276.486 eV                                      
   RCLOC  =    1.304    cutoff for local pot                                    
   LCOR   =        T    correct aug charges                                     
   LPAW   =        T    paw PP                                                  
   EAUG   =  758.233                                                            
   DEXC   =    0.000                                                            
   RMAX   =    2.046    core radius for proj-oper                               
   RAUG   =    1.300    factor for augmentation sphere                          
   RDEP   =    2.025    radius for radial grids                                 
   RDEPT  =    1.558    core radius for aug-charge                              
                                                                                
   Atomic configuration                                                         
    8 entries                                                                   
     n  l   j            E        occ.                                          
     1  0  0.50     -8850.2467   2.0000                                         
     2  0  0.50     -1062.3498   2.0000                                         
     2  1  1.50      -916.8226   6.0000                                         
     3  0  0.50      -114.6929   2.0000                                         
     3  1  1.50       -72.1325   6.0000                                         
     3  2  2.50        -5.0394  10.0000                                         
     4  0  0.50        -4.6097   1.0000                                         
     4  3  2.50        -1.3606   0.0000                                         
   Description                                                                  
     l       E           TYP  RCUT    TYP  RCUT                                 
     1    -72.1324777     23  1.700                                             
     1     -1.3605826     23  1.700                                             
     2     -5.0393776     23  2.000                                             
     2     -6.3999602     23  2.000                                             
     0     -4.6097062     23  1.800                                             
     0     14.1620818     23  1.800                                             
  local pseudopotential read in
  partial core-charges read in
  partial kinetic energy density read in
  atomic valenz-charges read in
  non local Contribution for L=           1  read in
    real space projection operators read in
  non local Contribution for L=           1  read in
    real space projection operators read in
  non local Contribution for L=           2  read in
    real space projection operators read in
  non local Contribution for L=           2  read in
    real space projection operators read in
  non local Contribution for L=           0  read in
    real space projection operators read in
  non local Contribution for L=           0  read in
    real space projection operators read in
    PAW grid and wavefunctions read in
 
   number of l-projection  operators is LMAX  =           6
   number of lm-projection operators is LMMAX =          18
 
 POTCAR:     PAW_PBE Fe_pv 02Aug2007              
   SHA256 =  5d22e414b1f82158bf2c7ecb8b97b28fd0923e48cadc1c3bf74d524558f5dd32 Fe
   COPYR  = (c) Copyright 02Aug2007 Georg Kresse                                
   COPYR  = This file is part of the software VASP. Any use, copying, and all ot
   COPYR  = If you do not have a valid VASP license, you may not use, copy or di
   VRHFIN =Fe:  3pd7s1                                                          
   LEXCH  = PE                                                                  
   EATOM  =  2457.4239 eV,  180.6156 Ry                                         
                                                                                
   TITEL  = PAW_PBE Fe_pv 02Aug2007                                             
   LULTRA =        F    use ultrasoft PP ?                                      
   IUNSCR =        1    unscreen: 0-lin 1-nonlin 2-no                           
   RPACOR =    1.750    partial core radius                                     
   POMASS =   55.847; ZVAL   =   14.000    mass and valenz                      
   RCORE  =    2.200    outmost cutoff radius                                   
   RWIGS  =    2.200; RWIGS  =    1.164    wigner-seitz radius (au A)           
   ENMAX  =  293.238; ENMIN  =  219.928 eV                                      
   ICORE  =        3    local potential                                         
   LCOR   =        T    correct aug charges                                     
   LPAW   =        T    paw PP                                                  
   EAUG   =  578.342                                                            
   DEXC   =    0.000                                                            
   RMAX   =    2.249    core radius for proj-oper                               
   RAUG   =    1.300    factor for augmentation sphere                          
   RDEP   =    2.296    radius for radial grids                                 
   RDEPT  =    1.766    core radius for aug-charge                              
                                                                                
   Atomic configuration                                                         
    8 entries                                                                   
     n  l   j            E        occ.                                          
     1  0  0.50     -6993.8440   2.0000                                         
     2  0  0.50      -814.6047   2.0000                                         
     2  1  1.50      -693.3689   6.0000                                         
     3  0  0.50       -89.4732   2.0000                                         
     3  1  1.50       -55.6373   6.0000                                         
     3  2  2.50        -3.8151   7.0000                                         
     4  0  0.50        -4.2551   1.0000                                         
     4  3  2.50        -1.3606   0.0000                                         
   Description                                                                  
     l       E           TYP  RCUT    TYP  RCUT                                 
     1    -55.6372668     23  2.000                                             
     1     -5.4423304     23  2.000                                             
     2     -3.8151096     23  2.200                                             
     2     -5.1756922     23  2.200                                             
     0     -4.2550951     23  2.200                                             
     0     27.2116520     23  2.200                                             
     3     -1.3605826     23  2.200                                             
  local pseudopotential read in
  partial core-charges read in
  partial kinetic energy density read in
  atomic valenz-charges read in
  non local Contribution for L=           1  read in
    real space projection operators read in
  non local Contribution for L=           1  read in
    real space projection operators read in
  non local Contribution for L=           2  read in
    real space projection operators read in
  non local Contribution for L=           2  read in
    real space projection operators read in
  non local Contribution for L=           0  read in
    real space projection operators read in
  non local Contribution for L=           0  read in
    real space projection operators read in
    PAW grid and wavefunctions read in
 
   number of l-projection  operators is LMAX  =           6
   number of lm-projection operators is LMMAX =          18
 

 ----------------------------------------------------------------------------- 
|                                                                             |
|  ADVICE TO THIS USER RUNNING 'VASP/VAMP'   (HEAR YOUR MASTER'S VOICE ...):  |
|                                                                             |
|      You have a (more or less) 'large supercell' and for larger cells       |
|      it might be more efficient to use real space projection opertators     |
|      So try LREAL= Auto  in the INCAR   file.                               |
|      Mind:          For very  accurate calculation you might also keep the  |
|      reciprocal projection scheme          (i.e. LREAL=.FALSE.)             |
|                                                                             |
 ----------------------------------------------------------------------------- 


 ----------------------------------------------------------------------------- 
|                                                                             |
|  ADVICE TO THIS USER RUNNING 'VASP/VAMP'   (HEAR YOUR MASTER'S VOICE ...):  |
|                                                                             |
|      You enforced a specific xc-type in the INCAR file,                     |
|      a different type was found on the POTCAR file                          |
|          I HOPE YOU KNOW, WHAT YOU ARE  DOING                               |
|                                                                             |
 ----------------------------------------------------------------------------- 

  PAW_PBE S 06Sep2000                   :
 energy of atom  1       EATOM= -276.8230
 kinetic energy error for atom=    0.0007 (will be added to EATOM!!)
   PAW_PBE Cu_pv 06Sep2000              :
 energy of atom  2       EATOM=-4120.1201
 kinetic energy error for atom=    0.0094 (will be added to EATOM!!)
   PAW_PBE Fe_pv 02Aug2007              :
 energy of atom  3       EATOM=-2457.4239
 kinetic energy error for atom=    0.0025 (will be added to EATOM!!)
 
 
 POSCAR: Fe16 Cu16 S32                           
  positions in direct lattice
  No initial velocities read in
 exchange correlation table for  LEXCH =       14
   RHO(1)=    0.500       N(1)  =     2000
   RHO(2)=  100.500       N(2)  =     4000
 


--------------------------------------------------------------------------------------------------------


 ion  position               nearest neighbor table
   1  0.126  0.125  0.124-  37 2.26  41 2.26  61 2.27  49 2.28
   2  0.626  0.125  0.124-  38 2.26  42 2.26  62 2.27  50 2.28
   3  0.126  0.625  0.124-  39 2.26  43 2.26  63 2.27  51 2.28
   4  0.626  0.625  0.124-  40 2.26  44 2.26  64 2.27  52 2.28
   5  0.374  0.375  0.124-  39 2.26  41 2.26  62 2.27  52 2.28
   6  0.874  0.375  0.124-  40 2.26  42 2.26  61 2.27  51 2.28
   7  0.374  0.875  0.124-  37 2.26  43 2.26  64 2.27  50 2.28
   8  0.874  0.875  0.124-  38 2.26  44 2.26  63 2.27  49 2.28
   9  0.125  0.374  0.874-  41 2.26  45 2.26  51 2.27  55 2.28
  10  0.625  0.374  0.874-  42 2.26  46 2.26  52 2.27  56 2.28
  11  0.125  0.874  0.874-  43 2.26  47 2.26  49 2.27  53 2.28
  12  0.625  0.874  0.874-  44 2.26  48 2.26  50 2.27  54 2.28
  13  0.375  0.126  0.874-  41 2.26  46 2.26  50 2.27  53 2.28
  14  0.875  0.126  0.874-  42 2.26  45 2.26  49 2.27  54 2.28
  15  0.375  0.626  0.874-  43 2.26  48 2.26  52 2.27  55 2.28
  16  0.875  0.626  0.874-  44 2.26  47 2.26  51 2.27  56 2.28
  17  0.124  0.125  0.624-  45 2.26  33 2.26  53 2.27  57 2.28
  18  0.624  0.125  0.624-  46 2.26  34 2.26  54 2.27  58 2.28
  19  0.124  0.625  0.624-  47 2.26  35 2.26  55 2.27  59 2.28
  20  0.624  0.625  0.624-  48 2.26  36 2.26  56 2.27  60 2.28
  21  0.376  0.375  0.624-  46 2.26  36 2.26  55 2.27  57 2.28
  22  0.876  0.375  0.624-  45 2.26  35 2.26  56 2.27  58 2.28
  23  0.376  0.875  0.624-  48 2.26  34 2.26  53 2.27  59 2.28
  24  0.876  0.875  0.624-  47 2.26  33 2.26  54 2.27  60 2.28
  25  0.375  0.124  0.374-  34 2.26  37 2.26  57 2.27  62 2.28
  26  0.875  0.124  0.374-  33 2.26  38 2.26  58 2.27  61 2.28
  27  0.375  0.624  0.374-  36 2.26  39 2.26  59 2.27  64 2.28
  28  0.875  0.624  0.374-  35 2.26  40 2.26  60 2.27  63 2.28
  29  0.125  0.376  0.374-  35 2.26  39 2.26  57 2.27  61 2.28
  30  0.625  0.376  0.374-  36 2.26  40 2.26  58 2.27  62 2.28
  31  0.125  0.876  0.374-  33 2.26  37 2.26  59 2.27  63 2.28
  32  0.625  0.876  0.374-  34 2.26  38 2.26  60 2.27  64 2.28
  33  0.000  0.000  0.501-  26 2.26  31 2.26  17 2.26  24 2.26
  34  0.500  0.000  0.501-  25 2.26  32 2.26  18 2.26  23 2.26
  35  0.000  0.500  0.501-  28 2.26  29 2.26  19 2.26  22 2.26
  36  0.500  0.500  0.501-  27 2.26  30 2.26  20 2.26  21 2.26
  37  0.250  0.000  0.251-   1 2.26   7 2.26  25 2.26  31 2.26
  38  0.750  0.000  0.251-   2 2.26   8 2.26  26 2.26  32 2.26
  39  0.250  0.500  0.251-   3 2.26   5 2.26  27 2.26  29 2.26
  40  0.750  0.500  0.251-   4 2.26   6 2.26  28 2.26  30 2.26
  41  0.250  0.250  0.001-   9 2.26  13 2.26   1 2.26   5 2.26
  42  0.750  0.250  0.001-  10 2.26  14 2.26   2 2.26   6 2.26
  43  0.250  0.750  0.001-  11 2.26  15 2.26   3 2.26   7 2.26
  44  0.750  0.750  0.001-  12 2.26  16 2.26   4 2.26   8 2.26
  45  0.000  0.250  0.751-  17 2.26  22 2.26   9 2.26  14 2.26
  46  0.500  0.250  0.751-  18 2.26  21 2.26  10 2.26  13 2.26
  47  0.000  0.750  0.751-  19 2.26  24 2.26  11 2.26  16 2.26
  48  0.500  0.750  0.751-  20 2.26  23 2.26  12 2.26  15 2.26
  49  0.000  0.000  0.001-  11 2.27  14 2.27   1 2.28   8 2.28
  50  0.500  0.000  0.001-  12 2.27  13 2.27   2 2.28   7 2.28
  51  0.000  0.500  0.001-   9 2.27  16 2.27   3 2.28   6 2.28
  52  0.500  0.500  0.001-  10 2.27  15 2.27   4 2.28   5 2.28
  53  0.250  0.000  0.751-  17 2.27  23 2.27  11 2.28  13 2.28
  54  0.750  0.000  0.751-  18 2.27  24 2.27  12 2.28  14 2.28
  55  0.250  0.500  0.751-  19 2.27  21 2.27   9 2.28  15 2.28
  56  0.750  0.500  0.751-  20 2.27  22 2.27  10 2.28  16 2.28
  57  0.250  0.250  0.501-  25 2.27  29 2.27  17 2.28  21 2.28
  58  0.750  0.250  0.501-  26 2.27  30 2.27  18 2.28  22 2.28
  59  0.250  0.750  0.501-  27 2.27  31 2.27  19 2.28  23 2.28
  60  0.750  0.750  0.501-  28 2.27  32 2.27  20 2.28  24 2.28
  61  0.000  0.250  0.251-   1 2.27   6 2.27  26 2.28  29 2.28
  62  0.500  0.250  0.251-   2 2.27   5 2.27  25 2.28  30 2.28
  63  0.000  0.750  0.251-   3 2.27   8 2.27  28 2.28  31 2.28
  64  0.500  0.750  0.251-   4 2.27   7 2.27  27 2.28  32 2.28
 
  LATTYP: Found a base centered orthorhombic cell.
 ALAT       =    14.7770849863
 B/A-ratio  =     1.0122800538
 C/A-ratio  =     0.7047339857
  
  Lattice vectors:
  
 A1 = (  10.5131340000,   0.0641570000,   0.0000000000)
 A2 = (  -0.0641570000, -10.5131340000,   0.0000000000)
 A3 = (   0.0000000000,   0.0000000000, -10.4139140000)


Analysis of symmetry for initial positions (statically):
=====================================================================
 Subroutine PRICEL returns following result:
 
  LATTYP: Found a face centered orthorhombic cell.
 ALAT       =     7.3885424932
 B/A-ratio  =     1.0122800538
 C/A-ratio  =     1.4094679715
  
  Lattice vectors:
  
 A1 = (  -2.6443227500,  -2.6443227500,   5.2069570000)
 A2 = (  -2.6122442500,   2.6122442500,   5.2069570000)
 A3 = (  -5.2565670000,  -0.0320785000,   0.0000000000)
 
   8 primitive cells build up your supercell.
 

 Routine SETGRP: Setting up the symmetry group for a 
 base centered orthorhombic supercell.


 Subroutine GETGRP returns: Found  4 space group operations
 (whereof  2 operations were pure point group operations)
 out of a pool of  8 trial point group operations.


The static configuration has the point symmetry C_2 .
 The point group associated with its full space group is C_2v.


Analysis of symmetry for dynamics (positions and initial velocities):
=====================================================================
 Subroutine PRICEL returns following result:
 
  LATTYP: Found a face centered orthorhombic cell.
 ALAT       =     7.3885424932
 B/A-ratio  =     1.0122800538
 C/A-ratio  =     1.4094679715
  
  Lattice vectors:
  
 A1 = (  -2.6443227500,  -2.6443227500,   5.2069570000)
 A2 = (  -2.6122442500,   2.6122442500,   5.2069570000)
 A3 = (  -5.2565670000,  -0.0320785000,   0.0000000000)
 
   8 primitive cells build up your supercell.
 

 Routine SETGRP: Setting up the symmetry group for a 
 base centered orthorhombic supercell.


 Subroutine GETGRP returns: Found  4 space group operations
 (whereof  2 operations were pure point group operations)
 out of a pool of  8 trial point group operations.


The dynamic configuration has the point symmetry C_2 .
 The point group associated with its full space group is C_2v.


Analysis of structural, dynamic, and magnetic symmetry:
=====================================================================
 Subroutine PRICEL returns following result:
 
  LATTYP: Found a face centered orthorhombic cell.
 ALAT       =     7.3885424932
 B/A-ratio  =     1.0122800538
 C/A-ratio  =     1.4094679715
  
  Lattice vectors:
  
 A1 = (  -2.6443227500,  -2.6443227500,   5.2069570000)
 A2 = (  -2.6122442500,   2.6122442500,   5.2069570000)
 A3 = (  -5.2565670000,  -0.0320785000,   0.0000000000)
 
   8 primitive cells build up your supercell.
 

 Routine SETGRP: Setting up the symmetry group for a 
 base centered orthorhombic supercell.


 Subroutine GETGRP returns: Found  4 space group operations
 (whereof  2 operations were pure point group operations)
 out of a pool of  8 trial point group operations.


The magnetic configuration has the point symmetry C_2 .
 The point group associated with its full space group is C_2v.


 Subroutine INISYM returns: Found  4 space group operations
 (whereof  2 operations are pure point group operations),
 and found     8 'primitive' translations

 
 
 KPOINTS: Automatic mesh                          

Automatic generation of k-mesh.
Space group operators:
 irot       det(A)        alpha          n_x          n_y          n_z        tau_x        tau_y        tau_z
    1     1.000000     0.000000     1.000000     0.000000     0.000000     0.000000     0.000000     0.000000
    2     1.000000   180.000000     0.000000     0.000000     1.000000     0.000000     0.000000     0.000000
    3    -1.000000   180.000000     0.707107     0.707107     0.000000    -0.750000    -0.000000     0.750000
    4    -1.000000   180.000000     0.707107    -0.707107     0.000000    -0.750000    -0.000000     0.750000
 
 Subroutine IBZKPT returns following result:
 ===========================================
 
 Found      6 irreducible k-points:
 
 Following reciprocal coordinates:
            Coordinates               Weight
  0.000000  0.000000  0.000000      1.000000
  0.500000  0.000000  0.000000      2.000000
  0.500000  0.500000  0.000000      1.000000
  0.000000  0.000000  0.500000      1.000000
  0.500000  0.000000  0.500000      2.000000
  0.500000  0.500000  0.500000      1.000000
 
 Following cartesian coordinates:
            Coordinates               Weight
  0.000000  0.000000  0.000000      1.000000
  0.047561 -0.000290  0.000000      2.000000
  0.047271  0.047271  0.000000      1.000000
  0.000000  0.000000  0.048013      1.000000
  0.047561 -0.000290  0.048013      2.000000
  0.047271  0.047271  0.048013      1.000000
 
 TETIRR: Found     12 inequivalent tetrahedra from       48
 
 Subroutine IBZKPT_HF returns following result:
 ==============================================
 
 Found      8 k-points in 1st BZ
 the following      8 k-points will be used (e.g. in the exchange kernel)
 Following reciprocal coordinates:   # in IRBZ
  0.000000  0.000000  0.000000    0.12500000   1 t-inv F
  0.500000  0.000000  0.000000    0.12500000   2 t-inv F
  0.500000  0.500000  0.000000    0.12500000   3 t-inv F
  0.000000  0.000000  0.500000    0.12500000   4 t-inv F
  0.500000  0.000000  0.500000    0.12500000   5 t-inv F
  0.500000  0.500000  0.500000    0.12500000   6 t-inv F
  0.000000 -0.500000  0.000000    0.12500000   2 t-inv F spinflp
  0.000000 -0.500000  0.500000    0.12500000   5 t-inv F spinflp


--------------------------------------------------------------------------------------------------------




 Dimension of arrays:
   k-points           NKPTS =      6   k-points in BZ     NKDIM =      6   number of bands    NBANDS=    512
   number of dos      NEDOS =    301   number of ions     NIONS =     64
   non local maximal  LDIM  =      6   non local SUM 2l+1 LMDIM =     18
   total plane-waves  NPLWV = 829440
   max r-space proj   IRMAX =      1   max aug-charges    IRDMAX=  22901
   dimension x,y,z NGX =    96 NGY =   96 NGZ =   90
   dimension x,y,z NGXF=   192 NGYF=  192 NGZF=  180
   support grid    NGXF=   192 NGYF=  192 NGZF=  180
   ions per type =              32  16  16
   NGX,Y,Z   is equivalent  to a cutoff of  15.18, 15.18, 14.37 a.u.
   NGXF,Y,Z  is equivalent  to a cutoff of  30.36, 30.36, 28.73 a.u.

 SYSTEM =  CuFeS2                                  
 POSCAR =  Fe16 Cu16 S32                           

 Startparameter for this run:
   NWRITE =      2    write-flag & timer
   PREC   = accura    normal or accurate (medium, high low for compatibility)
   ISTART =      0    job   : 0-new  1-cont  2-samecut
   ICHARG =      1    charge: 1-file 2-atom 10-const
   ISPIN  =      2    spin polarized calculation?
   LNONCOLLINEAR =      F non collinear calculations
   LSORBIT =      F    spin-orbit coupling
   INIWAV =      1    electr: 0-lowe 1-rand  2-diag
   LASPH  =      F    aspherical Exc in radial PAW
   METAGGA=      F    non-selfconsistent MetaGGA calc.

 Electronic Relaxation 1
   ENCUT  =  700.0 eV  51.45 Ry    7.17 a.u.  22.68 22.68 22.47*2*pi/ulx,y,z
   ENINI  =  700.0     initial cutoff
   ENAUG  =  758.2 eV  augmentation charge cutoff
   NELM   =    500;   NELMIN=  2; NELMDL=  0     # of ELM steps 
   EDIFF  = 0.1E-07   stopping-criterion for ELM
   LREAL  =      F    real-space projection
   NLSPLINE    = F    spline interpolate recip. space projectors
   LCOMPAT=      F    compatible to vasp.4.4
   GGA_COMPAT  = T    GGA compatible to vasp.4.4-vasp.4.6
   LMAXPAW     = -100 max onsite density
   LMAXMIX     =    4 max onsite mixed and CHGCAR
   VOSKOWN=      0    Vosko Wilk Nusair interpolation
   ROPT   =    0.00000   0.00000   0.00000
 Ionic relaxation
   EDIFFG = -.1E-04   stopping-criterion for IOM
   NSW    =      0    number of steps for IOM
   NBLOCK =      1;   KBLOCK =      1    inner block; outer block 
   IBRION =     -1    ionic relax: 0-MD 1-quasi-New 2-CG
   NFREE  =      0    steps in history (QN), initial steepest desc. (CG)
   ISIF   =      2    stress and relaxation
   IWAVPR =     10    prediction:  0-non 1-charg 2-wave 3-comb
   ISYM   =      2    0-nonsym 1-usesym 2-fastsym
   LCORR  =      T    Harris-Foulkes like correction to forces

   POTIM  = 0.5000    time-step for ionic-motion
   TEIN   =    0.0    initial temperature
   TEBEG  =    0.0;   TEEND  =   0.0 temperature during run
   SMASS  =  -3.00    Nose mass-parameter (am)
   estimated Nose-frequenzy (Omega)   =  0.10E-29 period in steps =****** mass=  -0.253E-26a.u.
   SCALEE = 1.0000    scale energy and forces
   NPACO  =    256;   APACO  = 16.0  distance and # of slots for P.C.
   PSTRESS=    0.0 pullay stress

  Mass of Ions in am
   POMASS =  32.07 63.55 55.85
  Ionic Valenz
   ZVAL   =   6.00 17.00 14.00
  Atomic Wigner-Seitz radii
   RWIGS  =  -1.00 -1.00 -1.00
  virtual crystal weights 
   VCA    =   1.00  1.00  1.00
   NELECT =     688.0000    total number of electrons
   NUPDOWN=      -1.0000    fix difference up-down

 DOS related values:
   EMIN   =  10.00;   EMAX   =-10.00  energy-range for DOS
   EFERMI =   0.00
   ISMEAR =    -5;   SIGMA  =   0.03  broadening in eV -4-tet -1-fermi 0-gaus

 Electronic relaxation 2 (details)
   IALGO  =     38    algorithm
   LDIAG  =      T    sub-space diagonalisation (order eigenvalues)
   LSUBROT=      F    optimize rotation matrix (better conditioning)
   TURBO    =      0    0=normal 1=particle mesh
   IRESTART =      0    0=no restart 2=restart with 2 vectors
   NREBOOT  =      0    no. of reboots
   NMIN     =      0    reboot dimension
   EREF     =   0.00    reference energy to select bands
   IMIX   =      4    mixing-type and parameters
     AMIX     =   0.40;   BMIX     =  1.00
     AMIX_MAG =   1.60;   BMIX_MAG =  1.00
     AMIN     =   0.10
     WC   =   100.;   INIMIX=   1;  MIXPRE=   1;  MAXMIX= -45

 Intra band minimization:
   WEIMIN = 0.0000     energy-eigenvalue tresh-hold
   EBREAK =  0.49E-11  absolut break condition
   DEPER  =   0.30     relativ break condition  

   TIME   =   0.40     timestep for ELM

  volume/ion in A,a.u.               =      17.98       121.36
  Fermi-wavevector in a.u.,A,eV,Ry     =   1.379061  2.606048 25.875697  1.901810
  Thomas-Fermi vector in A             =   2.504065
 
 Write flags
   LWAVE        =      T    write WAVECAR
   LDOWNSAMPLE  =      F    k-point downsampling of WAVECAR
   LCHARG       =      T    write CHGCAR
   LVTOT        =      F    write LOCPOT, total local potential
   LVHAR        =      F    write LOCPOT, Hartree potential only
   LELF         =      F    write electronic localiz. function (ELF)
   LORBIT       =     11    0 simple, 1 ext, 2 COOP (PROOUT), +10 PAW based schemes


 Dipole corrections
   LMONO  =      F    monopole corrections only (constant potential shift)
   LDIPOL =      F    correct potential (dipole corrections)
   IDIPOL =      0    1-x, 2-y, 3-z, 4-all directions 
   EPSILON=  1.0000000 bulk dielectric constant

 LDA+U is selected, type is set to LDAUTYPE =  2
   angular momentum for each species LDAUL =     2    2    2
   U (eV)           for each species LDAUU =   0.0  0.1  4.7
   J (eV)           for each species LDAUJ =   0.0  0.0  0.0
 Exchange correlation treatment:
   GGA     =    PS    GGA type
   LEXCH   =    14    internal setting for exchange type
   VOSKOWN=      0    Vosko Wilk Nusair interpolation
   LHFCALC =     F    Hartree Fock is set to
   LHFONE  =     F    Hartree Fock one center treatment
   AEXX    =    0.0000 exact exchange contribution

 Linear response parameters
   LEPSILON=     F    determine dielectric tensor
   LRPA    =     F    only Hartree local field effects (RPA)
   LNABLA  =     F    use nabla operator in PAW spheres
   LVEL    =     F    velocity operator in full k-point grid
   LINTERFAST=   F  fast interpolation
   KINTER  =     0    interpolate to denser k-point grid
   CSHIFT  =0.1000    complex shift for real part using Kramers Kronig
   OMEGAMAX=  -1.0    maximum frequency
   DEG_THRESHOLD= 0.2000000E-02 threshold for treating states as degnerate
   RTIME   =   -0.100 relaxation time in fs
  (WPLASMAI=    0.000 imaginary part of plasma frequency in eV, 0.658/RTIME)
   DFIELD  = 0.0000000 0.0000000 0.0000000 field for delta impulse in time
 
 Orbital magnetization related:
   ORBITALMAG=     F  switch on orbital magnetization
   LCHIMAG   =     F  perturbation theory with respect to B field
   DQ        =  0.001000  dq finite difference perturbation B field
   LLRAUG    =     F  two centre corrections for induced B field

 PEAD related settings:
   LPEAD      =     T    switch on PEAD
   IPEAD      =     4    finite difference order for dpsi/dk
   LCALCPOL   =     T    calculate macroscopic polarization
   LCALCEPS   =     F    calculate dielectric tensor
   EFIELD_PEAD=    0.0000    0.0000    0.0000
   SKIP_EDOTP =     F
   LRPA       =     F
   SKIP_SCF   =     F


--------------------------------------------------------------------------------------------------------


 Static calculation
 charge density and potential will be updated during run
 spin polarized calculation
 Variant of blocked Davidson
 Davidson routine will perform the subspace rotation
 perform sub-space diagonalisation
    after iterative eigenvector-optimisation
 modified Broyden-mixing scheme, WC =      100.0
 initial mixing is a Kerker type mixing with AMIX =  0.4000 and BMIX =      1.0000
 Hartree-type preconditioning will be used
 using additional bands          168
 reciprocal scheme for non local part
 use partial core corrections
 calculate Harris-corrections to forces 
   (improved forces if not selfconsistent)
 use gradient corrections 
 use of overlap-Matrix (Vanderbilt PP)
 Fermi weights with tetrahedron method with Bloechl corrections


--------------------------------------------------------------------------------------------------------


  energy-cutoff  :      700.00
  volume of cell :     1150.97
      direct lattice vectors                 reciprocal lattice vectors
    10.513134000  0.064157000  0.000000000     0.095122657 -0.000580491  0.000000000
     0.064157000 10.513134000  0.000000000    -0.000580491  0.095122657  0.000000000
     0.000000000  0.000000000 10.413914000     0.000000000  0.000000000  0.096025375

  length of vectors
    10.513329759 10.513329759 10.413914000     0.095124429  0.095124429  0.096025375


 
 k-points in units of 2pi/SCALE and weight: Automatic mesh                          
   0.00000000  0.00000000  0.00000000       0.125
   0.04756133 -0.00029025  0.00000000       0.250
   0.04727108  0.04727108  0.00000000       0.125
   0.00000000  0.00000000  0.04801269       0.125
   0.04756133 -0.00029025  0.04801269       0.250
   0.04727108  0.04727108  0.04801269       0.125
 
 k-points in reciprocal lattice and weights: Automatic mesh                          
   0.00000000  0.00000000  0.00000000       0.125
   0.50000000  0.00000000  0.00000000       0.250
   0.50000000  0.50000000  0.00000000       0.125
   0.00000000  0.00000000  0.50000000       0.125
   0.50000000  0.00000000  0.50000000       0.250
   0.50000000  0.50000000  0.50000000       0.125
 
 position of ions in fractional coordinates (direct lattice) 
   0.12614700  0.12506900  0.12433100
   0.62614700  0.12506900  0.12433100
   0.12614700  0.62506900  0.12433100
   0.62614700  0.62506900  0.12433100
   0.37385300  0.37493100  0.12433100
   0.87385300  0.37493100  0.12433100
   0.37385300  0.87493100  0.12433100
   0.87385300  0.87493100  0.12433100
   0.12493100  0.37385300  0.87433100
   0.62493100  0.37385300  0.87433100
   0.12493100  0.87385300  0.87433100
   0.62493100  0.87385300  0.87433100
   0.37506900  0.12614700  0.87433100
   0.87506900  0.12614700  0.87433100
   0.37506900  0.62614700  0.87433100
   0.87506900  0.62614700  0.87433100
   0.12385300  0.12493100  0.62433100
   0.62385300  0.12493100  0.62433100
   0.12385300  0.62493100  0.62433100
   0.62385300  0.62493100  0.62433100
   0.37614700  0.37506900  0.62433100
   0.87614700  0.37506900  0.62433100
   0.37614700  0.87506900  0.62433100
   0.87614700  0.87506900  0.62433100
   0.37493100  0.12385300  0.37433100
   0.87493100  0.12385300  0.37433100
   0.37493100  0.62385300  0.37433100
   0.87493100  0.62385300  0.37433100
   0.12506900  0.37614700  0.37433100
   0.62506900  0.37614700  0.37433100
   0.12506900  0.87614700  0.37433100
   0.62506900  0.87614700  0.37433100
   0.00000000  0.00000000  0.50058000
   0.50000000  0.00000000  0.50058000
   0.00000000  0.50000000  0.50058000
   0.50000000  0.50000000  0.50058000
   0.25000000  0.00000000  0.25058000
   0.75000000  0.00000000  0.25058000
   0.25000000  0.50000000  0.25058000
   0.75000000  0.50000000  0.25058000
   0.25000000  0.25000000  0.00058000
   0.75000000  0.25000000  0.00058000
   0.25000000  0.75000000  0.00058000
   0.75000000  0.75000000  0.00058000
   0.00000000  0.25000000  0.75058000
   0.50000000  0.25000000  0.75058000
   0.00000000  0.75000000  0.75058000
   0.50000000  0.75000000  0.75058000
   0.00000000  0.00000000  0.00075800
   0.50000000  0.00000000  0.00075800
   0.00000000  0.50000000  0.00075800
   0.50000000  0.50000000  0.00075800
   0.25000000  0.00000000  0.75075800
   0.75000000  0.00000000  0.75075800
   0.25000000  0.50000000  0.75075800
   0.75000000  0.50000000  0.75075800
   0.25000000  0.25000000  0.50075800
   0.75000000  0.25000000  0.50075800
   0.25000000  0.75000000  0.50075800
   0.75000000  0.75000000  0.50075800
   0.00000000  0.25000000  0.25075800
   0.50000000  0.25000000  0.25075800
   0.00000000  0.75000000  0.25075800
   0.50000000  0.75000000  0.25075800
 
 position of ions in cartesian coordinates  (Angst):
   1.33422437  1.32296037  1.29477234
   6.59079137  1.35503887  1.29477234
   1.36630287  6.57952737  1.29477234
   6.62286987  6.61160587  1.29477234
   3.95442113  3.96568513  1.29477234
   9.21098813  3.99776363  1.29477234
   3.98649963  9.22225213  1.29477234
   9.24306663  9.25433063  1.29477234
   1.33740163  3.93838188  9.10520784
   6.59396863  3.97046038  9.10520784
   1.36948013  9.19494888  9.10520784
   6.62604713  9.22702738  9.10520784
   3.95124387  1.35026362  9.10520784
   9.20781087  1.38234212  9.10520784
   3.98332237  6.60683062  9.10520784
   9.23988937  6.63890912  9.10520784
   1.31009838  1.32136238  6.50172934
   6.56666538  1.35344088  6.50172934
   1.34217688  6.57792938  6.50172934
   6.59874388  6.61000788  6.50172934
   3.97854712  3.96728312  6.50172934
   9.23511412  3.99936162  6.50172934
   4.01062562  9.22385012  6.50172934
   9.26719262  9.25592862  6.50172934
   3.94964588  1.32613763  3.89825084
   9.20621288  1.35821613  3.89825084
   3.98172438  6.58270463  3.89825084
   9.23829138  6.61478313  3.89825084
   1.33899962  3.96250787  3.89825084
   6.59556662  3.99458637  3.89825084
   1.37107812  9.21907487  3.89825084
   6.62764512  9.25115337  3.89825084
   0.00000000  0.00000000  5.21299707
   5.25656700  0.03207850  5.21299707
   0.03207850  5.25656700  5.21299707
   5.28864550  5.28864550  5.21299707
   2.62828350  0.01603925  2.60951857
   7.88485050  0.04811775  2.60951857
   2.66036200  5.27260625  2.60951857
   7.91692900  5.30468475  2.60951857
   2.64432275  2.64432275  0.00604007
   7.90088975  2.67640125  0.00604007
   2.67640125  7.90088975  0.00604007
   7.93296825  7.93296825  0.00604007
   0.01603925  2.62828350  7.81647557
   5.27260625  2.66036200  7.81647557
   0.04811775  7.88485050  7.81647557
   5.30468475  7.91692900  7.81647557
   0.00000000  0.00000000  0.00789375
   5.25656700  0.03207850  0.00789375
   0.03207850  5.25656700  0.00789375
   5.28864550  5.28864550  0.00789375
   2.62828350  0.01603925  7.81832925
   7.88485050  0.04811775  7.81832925
   2.66036200  5.27260625  7.81832925
   7.91692900  5.30468475  7.81832925
   2.64432275  2.64432275  5.21485075
   7.90088975  2.67640125  5.21485075
   2.67640125  7.90088975  5.21485075
   7.93296825  7.93296825  5.21485075
   0.01603925  2.62828350  2.61137225
   5.27260625  2.66036200  2.61137225
   0.04811775  7.88485050  2.61137225
   5.30468475  7.91692900  2.61137225
 


--------------------------------------------------------------------------------------------------------


 k-point  1 :   0.0000 0.0000 0.0000  plane waves:   48435
 k-point  2 :   0.5000 0.0000 0.0000  plane waves:   48416
 k-point  3 :   0.5000 0.5000 0.0000  plane waves:   48416
 k-point  4 :   0.0000 0.0000 0.5000  plane waves:   48416
 k-point  5 :   0.5000 0.0000 0.5000  plane waves:   48352
 k-point  6 :   0.5000 0.5000 0.5000  plane waves:   48384

 maximum and minimum number of plane-waves per node :     48435    48352

 maximum number of plane-waves:     48435
 maximum index in each direction: 
   IXMAX=   22   IYMAX=   22   IZMAX=   22
   IXMIN=  -23   IYMIN=  -23   IZMIN=  -22


 serial   3D FFT for wavefunctions
 parallel 3D FFT for charge:
    minimum data exchange during FFTs selected (reduces bandwidth)


 total amount of memory used by VASP MPI-rank0   301249. kBytes
=======================================================================

   base      :      30000. kBytes
   nonl-proj :     175882. kBytes
   fftplans  :       4588. kBytes
   grid      :      69719. kBytes
   one-center:       1990. kBytes
   wavefun   :      19070. kBytes
 
     INWAV:  cpu time    0.0000: real time    0.0000
 Broyden mixing: mesh for mixing (old mesh)
   NGX = 45   NGY = 45   NGZ = 45
  (NGX  =192   NGY  =192   NGZ  =180)
  gives a total of  91125 points

 initial charge density was supplied:
 number of electron     688.0000485 magnetization      -0.0000000
 keeping initial charge density in first step


--------------------------------------------------------------------------------------------------------


 Maximum index for augmentation-charges          899 (set IRDMAX)


--------------------------------------------------------------------------------------------------------


 First call to EWALD:  gamma=   0.169
 Maximum number of real-space cells 3x 3x 3
 Maximum number of reciprocal cells 3x 3x 3

    FEWALD:  cpu time    0.0022: real time    0.0026


--------------------------------------- Iteration      1(   1)  ---------------------------------------


    POTLOK:  cpu time    0.3656: real time    0.4092
    SETDIJ:  cpu time    0.0151: real time    0.0153
     EDDAV:  cpu time   63.8818: real time   64.4671
 BZINTS: Fermi energy: 14.647615;688.000000 electrons
         Band energy:***********;  BLOECHL correction: -0.014628
       DOS:  cpu time    0.0203: real time    0.0204
    --------------------------------------------
      LOOP:  cpu time   64.2828: real time   64.9120

 eigenvalue-minimisations  : 12288
 total energy-change (2. order) : 0.5993362E+04  (-0.5187122E+05)
 number of electron     688.0000485 magnetization      -0.0000000
 augmentation part      688.0000485 magnetization      -0.0000000

 Free energy of the ion-electron system (eV)
  ---------------------------------------------------
  alpha Z        PSCENC =      2355.54508461
  Ewald energy   TEWEN  =    -62462.59186221
  -Hartree energ DENC   =    -42734.43972981
  -exchange      EXHF   =         0.00000000
  -V(xc)+E(xc)   XCENC  =      3281.46809721
  PAW double counting   =    112139.95620319  -115831.78136244
  entropy T*S    EENTRO =         0.00000000
  eigenvalues    EBANDS =     -4774.85911069
  atomic energy  EATOM  =    114020.06510763
  Solvation  Ediel_sol  =         0.00000000
  ---------------------------------------------------
  free energy    TOTEN  =      5993.36242748 eV

  energy without entropy =     5993.36242748  energy(sigma->0) =     5993.36242748


--------------------------------------------------------------------------------------------------------




--------------------------------------- Iteration      1(   2)  ---------------------------------------


     EDDAV:  cpu time   79.7497: real time   80.3368
 BZINTS: Fermi energy:  5.149764;688.000000 electrons
         Band energy:***********;  BLOECHL correction:  0.000000
       DOS:  cpu time    0.0035: real time    0.0035
    --------------------------------------------
      LOOP:  cpu time   79.7532: real time   80.3403

 eigenvalue-minimisations  : 14080
 total energy-change (2. order) :-0.6131991E+04  (-0.6026193E+04)
 number of electron     688.0000485 magnetization      -0.0000000
 augmentation part      688.0000485 magnetization      -0.0000000

 Free energy of the ion-electron system (eV)
  ---------------------------------------------------
  alpha Z        PSCENC =      2355.54508461
  Ewald energy   TEWEN  =    -62462.59186221
  -Hartree energ DENC   =    -42734.43972981
  -exchange      EXHF   =         0.00000000
  -V(xc)+E(xc)   XCENC  =      3281.46809721
  PAW double counting   =    112139.95620319  -115831.78136244
  entropy T*S    EENTRO =         0.00000000
  eigenvalues    EBANDS =    -10906.84966460
  atomic energy  EATOM  =    114020.06510763
  Solvation  Ediel_sol  =         0.00000000
  ---------------------------------------------------
  free energy    TOTEN  =      -138.62812642 eV

  energy without entropy =     -138.62812642  energy(sigma->0) =     -138.62812642


--------------------------------------------------------------------------------------------------------




--------------------------------------- Iteration      1(   3)  ---------------------------------------


     EDDAV:  cpu time  106.3867: real time  107.1295
 BZINTS: Fermi energy:  4.855783;688.000000 electrons
         Band energy:***********;  BLOECHL correction:  0.000000
       DOS:  cpu time    0.0043: real time    0.0043
    --------------------------------------------
      LOOP:  cpu time  106.3910: real time  107.1338

 eigenvalue-minimisations  : 16128
 total energy-change (2. order) :-0.2411646E+03  (-0.2405116E+03)
 number of electron     688.0000485 magnetization      -0.0000000
 augmentation part      688.0000485 magnetization      -0.0000000

 Free energy of the ion-electron system (eV)
  ---------------------------------------------------
  alpha Z        PSCENC =      2355.54508461
  Ewald energy   TEWEN  =    -62462.59186221
  -Hartree energ DENC   =    -42734.43972981
  -exchange      EXHF   =         0.00000000
  -V(xc)+E(xc)   XCENC  =      3281.46809721
  PAW double counting   =    112139.95620319  -115831.78136244
  entropy T*S    EENTRO =         0.00000000
  eigenvalues    EBANDS =    -11148.01426283
  atomic energy  EATOM  =    114020.06510763
  Solvation  Ediel_sol  =         0.00000000
  ---------------------------------------------------
  free energy    TOTEN  =      -379.79272466 eV

  energy without entropy =     -379.79272466  energy(sigma->0) =     -379.79272466


--------------------------------------------------------------------------------------------------------




--------------------------------------- Iteration      1(   4)  ---------------------------------------


     EDDAV:  cpu time  103.7490: real time  104.4673
 BZINTS: Fermi energy:  4.831328;688.000000 electrons
         Band energy:***********;  BLOECHL correction:  0.000000
       DOS:  cpu time    0.0033: real time    0.0034
    --------------------------------------------
      LOOP:  cpu time  103.7524: real time  104.4707

 eigenvalue-minimisations  : 15616
 total energy-change (2. order) :-0.3395704E+01  (-0.3395538E+01)
 number of electron     688.0000485 magnetization      -0.0000000
 augmentation part      688.0000485 magnetization      -0.0000000

 Free energy of the ion-electron system (eV)
  ---------------------------------------------------
  alpha Z        PSCENC =      2355.54508461
  Ewald energy   TEWEN  =    -62462.59186221
  -Hartree energ DENC   =    -42734.43972981
  -exchange      EXHF   =         0.00000000
  -V(xc)+E(xc)   XCENC  =      3281.46809721
  PAW double counting   =    112139.95620319  -115831.78136244
  entropy T*S    EENTRO =         0.00000000
  eigenvalues    EBANDS =    -11151.40996637
  atomic energy  EATOM  =    114020.06510763
  Solvation  Ediel_sol  =         0.00000000
  ---------------------------------------------------
  free energy    TOTEN  =      -383.18842820 eV

  energy without entropy =     -383.18842820  energy(sigma->0) =     -383.18842820


--------------------------------------------------------------------------------------------------------




--------------------------------------- Iteration      1(   5)  ---------------------------------------


     EDDAV:  cpu time  102.8187: real time  103.5339
 BZINTS: Fermi energy:  4.818754;688.000000 electrons
         Band energy:***********;  BLOECHL correction:  0.000000
       DOS:  cpu time    0.0042: real time    0.0042
    CHARGE:  cpu time    1.1872: real time    1.1954
    MIXING:  cpu time    0.0043: real time    0.0044
    --------------------------------------------
      LOOP:  cpu time  104.0144: real time  104.7379

 eigenvalue-minimisations  : 15360
 total energy-change (2. order) :-0.1074655E+00  (-0.1074650E+00)
 number of electron     688.0000474 magnetization      -0.0000000
 augmentation part      285.7400005 magnetization      -0.0000000

 Broyden mixing:
  rms(total) = 0.58781E+01    rms(broyden)= 0.58774E+01
  rms(prec ) = 0.66008E+01
  weight for this iteration     100.00

 Free energy of the ion-electron system (eV)
  ---------------------------------------------------
  alpha Z        PSCENC =      2355.54508461
  Ewald energy   TEWEN  =    -62462.59186221
  -Hartree energ DENC   =    -42734.43972981
  -exchange      EXHF   =         0.00000000
  -V(xc)+E(xc)   XCENC  =      3281.46809721
  PAW double counting   =    112139.95620319  -115831.78136244
  entropy T*S    EENTRO =         0.00000000
  eigenvalues    EBANDS =    -11151.51743182
  atomic energy  EATOM  =    114020.06510763
  Solvation  Ediel_sol  =         0.00000000
  ---------------------------------------------------
  free energy    TOTEN  =      -383.29589365 eV

  energy without entropy =     -383.29589365  energy(sigma->0) =     -383.29589365


--------------------------------------------------------------------------------------------------------




--------------------------------------- Iteration      1(   6)  ---------------------------------------


    POTLOK:  cpu time    0.1460: real time    0.1480
    SETDIJ:  cpu time    0.0132: real time    0.0133
     EDDAV:  cpu time  114.4023: real time  115.1877
 BZINTS: Fermi energy:  4.945468;688.000000 electrons
         Band energy:***********;  BLOECHL correction:  0.000000
       DOS:  cpu time    0.0035: real time    0.0035
    CHARGE:  cpu time    1.1815: real time    1.1895
    MIXING:  cpu time    0.0026: real time    0.0701
    --------------------------------------------
      LOOP:  cpu time  115.7490: real time  116.6122

 eigenvalue-minimisations  : 16896
 total energy-change (2. order) : 0.4126297E+02  (-0.6101557E+01)
 number of electron     688.0000467 magnetization      -0.0000000
 augmentation part      279.9985308 magnetization      -0.0000000

 Broyden mixing:
  rms(total) = 0.34726E+01    rms(broyden)= 0.34726E+01
  rms(prec ) = 0.39034E+01
  weight for this iteration     100.00

 eigenvalues of (default mixing * dielectric matrix)
  average eigenvalue GAMMA=   0.7043
  0.7043

 Free energy of the ion-electron system (eV)
  ---------------------------------------------------
  alpha Z        PSCENC =      2355.54508461
  Ewald energy   TEWEN  =    -62462.59186221
  -Hartree energ DENC   =    -43036.74911529
  -exchange      EXHF   =         0.00000000
  -V(xc)+E(xc)   XCENC  =      3286.85234297
  PAW double counting   =    116413.97605396  -120146.72639558
  entropy T*S    EENTRO =         0.00000000
  eigenvalues    EBANDS =    -10772.40414196
  atomic energy  EATOM  =    114020.06510763
  Solvation  Ediel_sol  =         0.00000000
  ---------------------------------------------------
  free energy    TOTEN  =      -342.03292587 eV

  energy without entropy =     -342.03292587  energy(sigma->0) =     -342.03292587


--------------------------------------------------------------------------------------------------------




--------------------------------------- Iteration      1(   7)  ---------------------------------------


    POTLOK:  cpu time    0.1462: real time    0.1473
    SETDIJ:  cpu time    0.0132: real time    0.0133
     EDDAV:  cpu time  105.3655: real time  106.1014
 BZINTS: Fermi energy:  5.001202;688.000000 electrons
         Band energy:***********;  BLOECHL correction:  0.000000
       DOS:  cpu time    0.0049: real time    0.0049
    CHARGE:  cpu time    1.4817: real time    1.4895
    MIXING:  cpu time    0.0017: real time    0.0415
    --------------------------------------------
      LOOP:  cpu time  107.0132: real time  107.7978

 eigenvalue-minimisations  : 16128
 total energy-change (2. order) : 0.9633580E+01  (-0.5784269E+01)
 number of electron     688.0000472 magnetization      -0.0000000
 augmentation part      283.1038238 magnetization      -0.0000000

 Broyden mixing:
  rms(total) = 0.35351E+01    rms(broyden)= 0.35350E+01
  rms(prec ) = 0.39071E+01
  weight for this iteration     100.00

 eigenvalues of (default mixing * dielectric matrix)
  average eigenvalue GAMMA=   0.7826
  1.1515  0.4138

 Free energy of the ion-electron system (eV)
  ---------------------------------------------------
  alpha Z        PSCENC =      2355.54508461
  Ewald energy   TEWEN  =    -62462.59186221
  -Hartree energ DENC   =    -42927.75127742
  -exchange      EXHF   =         0.00000000
  -V(xc)+E(xc)   XCENC  =      3287.64004833
  PAW double counting   =    115851.32659080  -119541.63606371
  entropy T*S    EENTRO =         0.00000000
  eigenvalues    EBANDS =    -10914.99697433
  atomic energy  EATOM  =    114020.06510763
  Solvation  Ediel_sol  =         0.00000000
  ---------------------------------------------------
  free energy    TOTEN  =      -332.39934630 eV

  energy without entropy =     -332.39934630  energy(sigma->0) =     -332.39934630


--------------------------------------------------------------------------------------------------------




--------------------------------------- Iteration      1(   8)  ---------------------------------------


    POTLOK:  cpu time    0.1610: real time    0.1622
    SETDIJ:  cpu time    0.0166: real time    0.0167
     EDDAV:  cpu time  113.0792: real time  113.8462
 BZINTS: Fermi energy:  4.687821;688.000000 electrons
         Band energy:***********;  BLOECHL correction:  0.000000
       DOS:  cpu time    0.0033: real time    0.0033
    CHARGE:  cpu time    1.1813: real time    1.1894
    MIXING:  cpu time    0.0017: real time    0.0017
    --------------------------------------------
      LOOP:  cpu time  114.4431: real time  115.2195

 eigenvalue-minimisations  : 16640
 total energy-change (2. order) : 0.3410410E+01  (-0.5780373E+01)
 number of electron     688.0000468 magnetization      -0.0000000
 augmentation part      283.2759222 magnetization      -0.0000000

 Broyden mixing:
  rms(total) = 0.14201E+01    rms(broyden)= 0.14200E+01
  rms(prec ) = 0.16347E+01
  weight for this iteration     100.00

 eigenvalues of (default mixing * dielectric matrix)
  average eigenvalue GAMMA=   0.9412
  1.7572  0.6819  0.3846

 Free energy of the ion-electron system (eV)
  ---------------------------------------------------
  alpha Z        PSCENC =      2355.54508461
  Ewald energy   TEWEN  =    -62462.59186221
  -Hartree energ DENC   =    -42851.58293381
  -exchange      EXHF   =         0.00000000
  -V(xc)+E(xc)   XCENC  =      3283.15409025
  PAW double counting   =    114890.13895498  -118576.57143955
  entropy T*S    EENTRO =         0.00000000
  eigenvalues    EBANDS =    -10987.14593775
  atomic energy  EATOM  =    114020.06510763
  Solvation  Ediel_sol  =         0.00000000
  ---------------------------------------------------
  free energy    TOTEN  =      -328.98893586 eV

  energy without entropy =     -328.98893586  energy(sigma->0) =     -328.98893586


--------------------------------------------------------------------------------------------------------




--------------------------------------- Iteration      1(   9)  ---------------------------------------


    POTLOK:  cpu time    0.1460: real time    0.1472
    SETDIJ:  cpu time    0.0132: real time    0.0132
     EDDAV:  cpu time  105.0205: real time  105.7341
 BZINTS: Fermi energy:  5.054554;688.000000 electrons
         Band energy:***********;  BLOECHL correction:  0.000000
       DOS:  cpu time    0.0037: real time    0.0037
    CHARGE:  cpu time    1.1874: real time    1.1943
    MIXING:  cpu time    0.0015: real time    0.0015
    --------------------------------------------
      LOOP:  cpu time  106.3722: real time  107.0941

 eigenvalue-minimisations  : 15616
 total energy-change (2. order) : 0.9263413E+00  (-0.1562439E+01)
 number of electron     688.0000467 magnetization       0.0000000
 augmentation part      282.3412856 magnetization       0.0000000

 Broyden mixing:
  rms(total) = 0.80252E+00    rms(broyden)= 0.80249E+00
  rms(prec ) = 0.91095E+00
  weight for this iteration     100.00

 eigenvalues of (default mixing * dielectric matrix)
  average eigenvalue GAMMA=   0.8993
  1.8694  0.7959  0.6043  0.3274

 Free energy of the ion-electron system (eV)
  ---------------------------------------------------
  alpha Z        PSCENC =      2355.54508461
  Ewald energy   TEWEN  =    -62462.59186221
  -Hartree energ DENC   =    -42971.32086061
  -exchange      EXHF   =         0.00000000
  -V(xc)+E(xc)   XCENC  =      3287.54585463
  PAW double counting   =    114195.50645926  -117894.70936746
  entropy T*S    EENTRO =         0.00000000
  eigenvalues    EBANDS =    -10858.10301045
  atomic energy  EATOM  =    114020.06510763
  Solvation  Ediel_sol  =         0.00000000
  ---------------------------------------------------
  free energy    TOTEN  =      -328.06259461 eV

  energy without entropy =     -328.06259461  energy(sigma->0) =     -328.06259461


--------------------------------------------------------------------------------------------------------




--------------------------------------- Iteration      1(  10)  ---------------------------------------


    POTLOK:  cpu time    0.1461: real time    0.1474
    SETDIJ:  cpu time    0.0132: real time    0.0133
     EDDAV:  cpu time  112.7753: real time  113.5531
 BZINTS: Fermi energy:  4.794565;688.000000 electrons
         Band energy:***********;  BLOECHL correction:  0.000000
       DOS:  cpu time    0.0034: real time    0.0034
    CHARGE:  cpu time    1.3529: real time    1.3599
    MIXING:  cpu time    0.0022: real time    0.3043
    --------------------------------------------
      LOOP:  cpu time  114.2931: real time  115.3813

 eigenvalue-minimisations  : 17152
 total energy-change (2. order) : 0.8061607E-01  (-0.3765077E+00)
 number of electron     688.0000465 magnetization       0.0000000
 augmentation part      281.9319541 magnetization       0.0000000

 Broyden mixing:
  rms(total) = 0.36664E+00    rms(broyden)= 0.36663E+00
  rms(prec ) = 0.39818E+00
  weight for this iteration     100.00

 eigenvalues of (default mixing * dielectric matrix)
  average eigenvalue GAMMA=   1.0382
  1.7933  1.7933  0.6423  0.6423  0.3198

 Free energy of the ion-electron system (eV)
  ---------------------------------------------------
  alpha Z        PSCENC =      2355.54508461
  Ewald energy   TEWEN  =    -62462.59186221
  -Hartree energ DENC   =    -42965.63687800
  -exchange      EXHF   =         0.00000000
  -V(xc)+E(xc)   XCENC  =      3286.64823598
  PAW double counting   =    113626.56353717  -117323.92560086
  entropy T*S    EENTRO =         0.00000000
  eigenvalues    EBANDS =    -10864.64960286
  atomic energy  EATOM  =    114020.06510763
  Solvation  Ediel_sol  =         0.00000000
  ---------------------------------------------------
  free energy    TOTEN  =      -327.98197854 eV

  energy without entropy =     -327.98197854  energy(sigma->0) =     -327.98197854


--------------------------------------------------------------------------------------------------------




--------------------------------------- Iteration      1(  11)  ---------------------------------------


    POTLOK:  cpu time    0.1529: real time    0.1541
    SETDIJ:  cpu time    0.0135: real time    0.0135
     EDDAV:  cpu time  120.9980: real time  121.8105
 BZINTS: Fermi energy:  5.009801;688.000000 electrons
         Band energy:***********;  BLOECHL correction:  0.000000
       DOS:  cpu time    0.0037: real time    0.0037
    CHARGE:  cpu time    1.1798: real time    1.1880
    MIXING:  cpu time    0.0016: real time    0.0016
    --------------------------------------------
      LOOP:  cpu time  122.3495: real time  123.1715

 eigenvalue-minimisations  : 16896
 total energy-change (2. order) :-0.6510430E-01  (-0.5020760E-01)
 number of electron     688.0000466 magnetization       0.0000000
 augmentation part      282.3249345 magnetization       0.0000000

 Broyden mixing:
  rms(total) = 0.16484E+00    rms(broyden)= 0.16483E+00
  rms(prec ) = 0.16930E+00
  weight for this iteration     100.00

 eigenvalues of (default mixing * dielectric matrix)
  average eigenvalue GAMMA=   1.1016
  2.1056  2.1056  0.7435  0.6670  0.6670  0.3206

 Free energy of the ion-electron system (eV)
  ---------------------------------------------------
  alpha Z        PSCENC =      2355.54508461
  Ewald energy   TEWEN  =    -62462.59186221
  -Hartree energ DENC   =    -42948.63531616
  -exchange      EXHF   =         0.00000000
  -V(xc)+E(xc)   XCENC  =      3286.36320037
  PAW double counting   =    112783.91569931  -116477.07743885
  entropy T*S    EENTRO =         0.00000000
  eigenvalues    EBANDS =    -10885.63155754
  atomic energy  EATOM  =    114020.06510763
  Solvation  Ediel_sol  =         0.00000000
  ---------------------------------------------------
  free energy    TOTEN  =      -328.04708284 eV

  energy without entropy =     -328.04708284  energy(sigma->0) =     -328.04708284


--------------------------------------------------------------------------------------------------------




--------------------------------------- Iteration      1(  12)  ---------------------------------------


    POTLOK:  cpu time    0.1418: real time    0.1463
    SETDIJ:  cpu time    0.0133: real time    0.0133
     EDDAV:  cpu time  115.8066: real time  116.5963
 BZINTS: Fermi energy:  5.004867;688.000000 electrons
         Band energy:***********;  BLOECHL correction:  0.000000
       DOS:  cpu time    0.0037: real time    0.0038
    CHARGE:  cpu time    1.1829: real time    1.1910
    MIXING:  cpu time    0.0016: real time    0.0016
    --------------------------------------------
      LOOP:  cpu time  117.1500: real time  117.9524

 eigenvalue-minimisations  : 16896
 total energy-change (2. order) :-0.4089355E-01  (-0.1434480E-01)
 number of electron     688.0000465 magnetization       0.0000000
 augmentation part      282.1788085 magnetization       0.0000000

 Broyden mixing:
  rms(total) = 0.84348E-01    rms(broyden)= 0.84343E-01
  rms(prec ) = 0.92715E-01
  weight for this iteration     100.00

 eigenvalues of (default mixing * dielectric matrix)
  average eigenvalue GAMMA=   1.1051
  2.2505  2.2505  1.0078  0.3210  0.6127  0.6127  0.6808

 Free energy of the ion-electron system (eV)
  ---------------------------------------------------
  alpha Z        PSCENC =      2355.54508461
  Ewald energy   TEWEN  =    -62462.59186221
  -Hartree energ DENC   =    -42959.65086119
  -exchange      EXHF   =         0.00000000
  -V(xc)+E(xc)   XCENC  =      3286.57860721
  PAW double counting   =    112458.42881022  -116152.92708449
  entropy T*S    EENTRO =         0.00000000
  eigenvalues    EBANDS =    -10873.53577816
  atomic energy  EATOM  =    114020.06510763
  Solvation  Ediel_sol  =         0.00000000
  ---------------------------------------------------
  free energy    TOTEN  =      -328.08797639 eV

  energy without entropy =     -328.08797639  energy(sigma->0) =     -328.08797639


--------------------------------------------------------------------------------------------------------




--------------------------------------- Iteration      1(  13)  ---------------------------------------


    POTLOK:  cpu time    0.1452: real time    0.1484
    SETDIJ:  cpu time    0.0130: real time    0.0131
     EDDAV:  cpu time  114.5511: real time  115.3168
 BZINTS: Fermi energy:  4.986732;688.000000 electrons
         Band energy:***********;  BLOECHL correction:  0.000000
       DOS:  cpu time    0.0038: real time    0.0038
    CHARGE:  cpu time    1.1832: real time    1.1911
    MIXING:  cpu time    0.0016: real time    0.0016
    --------------------------------------------
      LOOP:  cpu time  115.8979: real time  116.6749

 eigenvalue-minimisations  : 16128
 total energy-change (2. order) :-0.1039118E-01  (-0.3594031E-02)
 number of electron     688.0000465 magnetization       0.0000000
 augmentation part      282.2303150 magnetization       0.0000000

 Broyden mixing:
  rms(total) = 0.42077E-01    rms(broyden)= 0.42074E-01
  rms(prec ) = 0.45061E-01
  weight for this iteration     100.00

 eigenvalues of (default mixing * dielectric matrix)
  average eigenvalue GAMMA=   1.1068
  2.2818  2.2818  1.1671  0.9130  0.3210  0.6701  0.6096  0.6096

 Free energy of the ion-electron system (eV)
  ---------------------------------------------------
  alpha Z        PSCENC =      2355.54508461
  Ewald energy   TEWEN  =    -62462.59186221
  -Hartree energ DENC   =    -42955.59706372
  -exchange      EXHF   =         0.00000000
  -V(xc)+E(xc)   XCENC  =      3286.46270845
  PAW double counting   =    112329.41433356  -116023.29886930
  entropy T*S    EENTRO =         0.00000000
  eigenvalues    EBANDS =    -10878.09780658
  atomic energy  EATOM  =    114020.06510763
  Solvation  Ediel_sol  =         0.00000000
  ---------------------------------------------------
  free energy    TOTEN  =      -328.09836757 eV

  energy without entropy =     -328.09836757  energy(sigma->0) =     -328.09836757


--------------------------------------------------------------------------------------------------------




--------------------------------------- Iteration      1(  14)  ---------------------------------------


    POTLOK:  cpu time    0.1420: real time    0.1470
    SETDIJ:  cpu time    0.0132: real time    0.0133
     EDDAV:  cpu time   99.0500: real time   99.7204
 BZINTS: Fermi energy:  4.986639;688.000000 electrons
         Band energy:***********;  BLOECHL correction:  0.000000
       DOS:  cpu time    0.0038: real time    0.0038
    CHARGE:  cpu time    1.3406: real time    1.3484
    MIXING:  cpu time    0.0020: real time    0.0020
    --------------------------------------------
      LOOP:  cpu time  100.5517: real time  101.2349

 eigenvalue-minimisations  : 14848
 total energy-change (2. order) :-0.5165143E-02  (-0.1222455E-02)
 number of electron     688.0000465 magnetization       0.0000000
 augmentation part      282.2173275 magnetization       0.0000000

 Broyden mixing:
  rms(total) = 0.25992E-01    rms(broyden)= 0.25991E-01
  rms(prec ) = 0.27517E-01
  weight for this iteration     100.00

 eigenvalues of (default mixing * dielectric matrix)
  average eigenvalue GAMMA=   1.2117
  2.4847  2.4847  1.8055  1.2120  0.3210  0.6273  0.6273  0.7141  0.6290

 Free energy of the ion-electron system (eV)
  ---------------------------------------------------
  alpha Z        PSCENC =      2355.54508461
  Ewald energy   TEWEN  =    -62462.59186221
  -Hartree energ DENC   =    -42956.70873516
  -exchange      EXHF   =         0.00000000
  -V(xc)+E(xc)   XCENC  =      3286.50424150
  PAW double counting   =    112293.53828101  -115987.59400156
  entropy T*S    EENTRO =         0.00000000
  eigenvalues    EBANDS =    -10876.86164852
  atomic energy  EATOM  =    114020.06510763
  Solvation  Ediel_sol  =         0.00000000
  ---------------------------------------------------
  free energy    TOTEN  =      -328.10353271 eV

  energy without entropy =     -328.10353271  energy(sigma->0) =     -328.10353271


--------------------------------------------------------------------------------------------------------




--------------------------------------- Iteration      1(  15)  ---------------------------------------


    POTLOK:  cpu time    0.1599: real time    0.1609
    SETDIJ:  cpu time    0.0166: real time    0.0169
     EDDAV:  cpu time  111.2949: real time  112.0326
 BZINTS: Fermi energy:  4.986833;688.000000 electrons
         Band energy:***********;  BLOECHL correction:  0.000000
       DOS:  cpu time    0.0038: real time    0.0039
    CHARGE:  cpu time    1.1843: real time    1.1910
    MIXING:  cpu time    0.0018: real time    0.0018
    --------------------------------------------
      LOOP:  cpu time  112.6612: real time  113.4070

 eigenvalue-minimisations  : 15872
 total energy-change (2. order) :-0.3272970E-02  (-0.1057316E-02)
 number of electron     688.0000465 magnetization       0.0000000
 augmentation part      282.2107362 magnetization       0.0000000

 Broyden mixing:
  rms(total) = 0.13234E-01    rms(broyden)= 0.13232E-01
  rms(prec ) = 0.14130E-01
  weight for this iteration     100.00

 eigenvalues of (default mixing * dielectric matrix)
  average eigenvalue GAMMA=   1.2123
  2.9377  2.2637  1.9373  1.0451  1.0451  0.3210  0.6161  0.6161  0.7049  0.6361

 Free energy of the ion-electron system (eV)
  ---------------------------------------------------
  alpha Z        PSCENC =      2355.54508461
  Ewald energy   TEWEN  =    -62462.59186221
  -Hartree energ DENC   =    -42957.32784631
  -exchange      EXHF   =         0.00000000
  -V(xc)+E(xc)   XCENC  =      3286.52760298
  PAW double counting   =    112271.52607919  -115965.65324100
  entropy T*S    EENTRO =         0.00000000
  eigenvalues    EBANDS =    -10876.19773056
  atomic energy  EATOM  =    114020.06510763
  Solvation  Ediel_sol  =         0.00000000
  ---------------------------------------------------
  free energy    TOTEN  =      -328.10680568 eV

  energy without entropy =     -328.10680568  energy(sigma->0) =     -328.10680568


--------------------------------------------------------------------------------------------------------




--------------------------------------- Iteration      1(  16)  ---------------------------------------


    POTLOK:  cpu time    0.1465: real time    0.1481
    SETDIJ:  cpu time    0.0131: real time    0.0132
     EDDAV:  cpu time   87.8247: real time   88.4304
 BZINTS: Fermi energy:  4.986249;688.000000 electrons
         Band energy:***********;  BLOECHL correction:  0.000000
       DOS:  cpu time    0.0039: real time    0.0039
    CHARGE:  cpu time    1.1804: real time    1.1872
    MIXING:  cpu time    0.0020: real time    0.0028
    --------------------------------------------
      LOOP:  cpu time   89.1705: real time   89.7855

 eigenvalue-minimisations  : 13824
 total energy-change (2. order) :-0.9044115E-03  (-0.2689534E-03)
 number of electron     688.0000465 magnetization       0.0000000
 augmentation part      282.2244659 magnetization       0.0000000

 Broyden mixing:
  rms(total) = 0.88474E-02    rms(broyden)= 0.88461E-02
  rms(prec ) = 0.93691E-02
  weight for this iteration     100.00

 eigenvalues of (default mixing * dielectric matrix)
  average eigenvalue GAMMA=   1.2900
  3.3468  2.1550  2.1550  1.4163  1.4163  0.3210  0.6117  0.6117  0.8089  0.7129
  0.6343

 Free energy of the ion-electron system (eV)
  ---------------------------------------------------
  alpha Z        PSCENC =      2355.54508461
  Ewald energy   TEWEN  =    -62462.59186221
  -Hartree energ DENC   =    -42956.59816572
  -exchange      EXHF   =         0.00000000
  -V(xc)+E(xc)   XCENC  =      3286.50698319
  PAW double counting   =    112263.05945768  -115957.06180034
  entropy T*S    EENTRO =         0.00000000
  eigenvalues    EBANDS =    -10877.03251493
  atomic energy  EATOM  =    114020.06510763
  Solvation  Ediel_sol  =         0.00000000
  ---------------------------------------------------
  free energy    TOTEN  =      -328.10771009 eV

  energy without entropy =     -328.10771009  energy(sigma->0) =     -328.10771009


--------------------------------------------------------------------------------------------------------




--------------------------------------- Iteration      1(  17)  ---------------------------------------


    POTLOK:  cpu time    0.1481: real time    0.1491
    SETDIJ:  cpu time    0.0128: real time    0.0129
     EDDAV:  cpu time  116.6219: real time  117.3945
 BZINTS: Fermi energy:  4.986016;688.000000 electrons
         Band energy:***********;  BLOECHL correction:  0.000000
       DOS:  cpu time    0.0038: real time    0.0038
    CHARGE:  cpu time    1.1842: real time    1.1910
    MIXING:  cpu time    0.0021: real time    0.0021
    --------------------------------------------
      LOOP:  cpu time  117.9730: real time  118.7534

 eigenvalue-minimisations  : 16384
 total energy-change (2. order) :-0.4726167E-03  (-0.2327209E-03)
 number of electron     688.0000465 magnetization      -0.0000000
 augmentation part      282.2195600 magnetization      -0.0000000

 Broyden mixing:
  rms(total) = 0.53994E-02    rms(broyden)= 0.53981E-02
  rms(prec ) = 0.60306E-02
  weight for this iteration     100.00

 eigenvalues of (default mixing * dielectric matrix)
  average eigenvalue GAMMA=   1.3694
  4.0917  2.3813  2.3813  1.5011  1.5011  0.3210  0.9850  0.6143  0.6143  0.7408
  0.6833  0.6176

 Free energy of the ion-electron system (eV)
  ---------------------------------------------------
  alpha Z        PSCENC =      2355.54508461
  Ewald energy   TEWEN  =    -62462.59186221
  -Hartree energ DENC   =    -42956.79305220
  -exchange      EXHF   =         0.00000000
  -V(xc)+E(xc)   XCENC  =      3286.50701915
  PAW double counting   =    112273.84837930  -115967.86464179
  entropy T*S    EENTRO =         0.00000000
  eigenvalues    EBANDS =    -10876.82421719
  atomic energy  EATOM  =    114020.06510763
  Solvation  Ediel_sol  =         0.00000000
  ---------------------------------------------------
  free energy    TOTEN  =      -328.10818271 eV

  energy without entropy =     -328.10818271  energy(sigma->0) =     -328.10818271


--------------------------------------------------------------------------------------------------------




--------------------------------------- Iteration      1(  18)  ---------------------------------------


    POTLOK:  cpu time    0.1473: real time    0.1484
    SETDIJ:  cpu time    0.0131: real time    0.0131
     EDDAV:  cpu time   93.4449: real time   94.0796
 BZINTS: Fermi energy:  4.986054;688.000000 electrons
         Band energy:***********;  BLOECHL correction:  0.000000
       DOS:  cpu time    0.0038: real time    0.0039
    CHARGE:  cpu time    1.1978: real time    1.2049
    MIXING:  cpu time    0.0022: real time    0.0022
    --------------------------------------------
      LOOP:  cpu time   94.8090: real time   95.4521

 eigenvalue-minimisations  : 14336
 total energy-change (2. order) :-0.8656255E-04  (-0.6464965E-04)
 number of electron     688.0000465 magnetization      -0.0000000
 augmentation part      282.2182103 magnetization      -0.0000000

 Broyden mixing:
  rms(total) = 0.23287E-02    rms(broyden)= 0.23276E-02
  rms(prec ) = 0.25420E-02
  weight for this iteration     100.00

 eigenvalues of (default mixing * dielectric matrix)
  average eigenvalue GAMMA=   1.3514
  4.3506  2.4009  2.4009  1.7272  1.1381  1.1381  0.3210  0.8563  0.6130  0.6130
  0.7384  0.6437  0.6275

 Free energy of the ion-electron system (eV)
  ---------------------------------------------------
  alpha Z        PSCENC =      2355.54508461
  Ewald energy   TEWEN  =    -62462.59186221
  -Hartree energ DENC   =    -42956.91817788
  -exchange      EXHF   =         0.00000000
  -V(xc)+E(xc)   XCENC  =      3286.51194997
  PAW double counting   =    112281.90124597  -115975.91663855
  entropy T*S    EENTRO =         0.00000000
  eigenvalues    EBANDS =    -10876.70497881
  atomic energy  EATOM  =    114020.06510763
  Solvation  Ediel_sol  =         0.00000000
  ---------------------------------------------------
  free energy    TOTEN  =      -328.10826927 eV

  energy without entropy =     -328.10826927  energy(sigma->0) =     -328.10826927


--------------------------------------------------------------------------------------------------------




--------------------------------------- Iteration      1(  19)  ---------------------------------------


    POTLOK:  cpu time    0.1448: real time    0.1470
    SETDIJ:  cpu time    0.0130: real time    0.0131
     EDDAV:  cpu time  103.5671: real time  104.2615
 BZINTS: Fermi energy:  4.986047;688.000000 electrons
         Band energy:***********;  BLOECHL correction:  0.000000
       DOS:  cpu time    0.0039: real time    0.0039
    CHARGE:  cpu time    1.1792: real time    1.1874
    MIXING:  cpu time    0.0022: real time    0.0022
    --------------------------------------------
      LOOP:  cpu time  104.9101: real time  105.6150

 eigenvalue-minimisations  : 15104
 total energy-change (2. order) :-0.7541385E-05  (-0.4817836E-05)
 number of electron     688.0000465 magnetization      -0.0000000
 augmentation part      282.2199845 magnetization      -0.0000000

 Broyden mixing:
  rms(total) = 0.16598E-02    rms(broyden)= 0.16596E-02
  rms(prec ) = 0.17501E-02
  weight for this iteration     100.00

 eigenvalues of (default mixing * dielectric matrix)
  average eigenvalue GAMMA=   1.3593
  4.4587  2.3886  2.3886  1.8266  1.3610  1.3610  0.3210  0.8653  0.8653  0.6123
  0.6123  0.6900  0.6188  0.6605

[...]
   -.421E+02 0.106E+00 0.381E+01   0.430E+02 -.103E+00 -.385E+01   -.864E+00 -.320E-02 0.345E-01   0.863E-04 0.221E-04 -.110E-03
   -.421E+02 0.106E+00 0.381E+01   0.430E+02 -.103E+00 -.385E+01   -.864E+00 -.320E-02 0.345E-01   0.863E-04 0.221E-04 -.110E-03
   -.421E+02 0.106E+00 0.381E+01   0.430E+02 -.103E+00 -.385E+01   -.864E+00 -.320E-02 0.345E-01   0.863E-04 0.221E-04 -.110E-03
   -.421E+02 0.106E+00 0.381E+01   0.430E+02 -.103E+00 -.385E+01   -.864E+00 -.320E-02 0.345E-01   0.863E-04 0.221E-04 -.110E-03
   0.421E+02 -.106E+00 0.381E+01   -.430E+02 0.103E+00 -.385E+01   0.864E+00 0.320E-02 0.345E-01   -.863E-04 -.221E-04 -.110E-03
   0.421E+02 -.106E+00 0.381E+01   -.430E+02 0.103E+00 -.385E+01   0.864E+00 0.320E-02 0.345E-01   -.863E-04 -.221E-04 -.110E-03
   0.421E+02 -.106E+00 0.381E+01   -.430E+02 0.103E+00 -.385E+01   0.864E+00 0.320E-02 0.345E-01   -.863E-04 -.221E-04 -.110E-03
   0.421E+02 -.106E+00 0.381E+01   -.430E+02 0.103E+00 -.385E+01   0.864E+00 0.320E-02 0.345E-01   -.863E-04 -.221E-04 -.110E-03
   0.106E+00 -.421E+02 0.381E+01   -.103E+00 0.430E+02 -.385E+01   -.320E-02 -.864E+00 0.345E-01   0.221E-04 0.863E-04 -.110E-03
   0.106E+00 -.421E+02 0.381E+01   -.103E+00 0.430E+02 -.385E+01   -.320E-02 -.864E+00 0.345E-01   0.221E-04 0.863E-04 -.110E-03
   0.106E+00 -.421E+02 0.381E+01   -.103E+00 0.430E+02 -.385E+01   -.320E-02 -.864E+00 0.345E-01   0.221E-04 0.863E-04 -.110E-03
   0.106E+00 -.421E+02 0.381E+01   -.103E+00 0.430E+02 -.385E+01   -.320E-02 -.864E+00 0.345E-01   0.221E-04 0.863E-04 -.110E-03
   -.106E+00 0.421E+02 0.381E+01   0.103E+00 -.430E+02 -.385E+01   0.320E-02 0.864E+00 0.345E-01   -.221E-04 -.863E-04 -.110E-03
   -.106E+00 0.421E+02 0.381E+01   0.103E+00 -.430E+02 -.385E+01   0.320E-02 0.864E+00 0.345E-01   -.221E-04 -.863E-04 -.110E-03
   -.106E+00 0.421E+02 0.381E+01   0.103E+00 -.430E+02 -.385E+01   0.320E-02 0.864E+00 0.345E-01   -.221E-04 -.863E-04 -.110E-03
   -.106E+00 0.421E+02 0.381E+01   0.103E+00 -.430E+02 -.385E+01   0.320E-02 0.864E+00 0.345E-01   -.221E-04 -.863E-04 -.110E-03
   -.102E-06 0.253E-07 -.448E+01   0.522E-13 -.924E-13 0.430E+01   -.110E-24 -.258E-25 0.183E+00   0.206E-14 0.290E-12 -.172E-03
   -.102E-06 0.253E-07 -.448E+01   0.556E-13 -.853E-13 0.430E+01   0.124E-24 -.103E-24 0.183E+00   -.343E-12 0.302E-12 -.172E-03
   -.102E-06 0.253E-07 -.448E+01   0.240E-13 -.782E-13 0.430E+01   0.513E-25 -.103E-24 0.183E+00   0.946E-13 -.368E-12 -.172E-03
   -.102E-06 0.254E-07 -.448E+01   0.556E-13 -.284E-13 0.430E+01   0.329E-25 -.155E-24 0.183E+00   -.394E-12 -.391E-12 -.172E-03
   0.253E-07 -.102E-06 -.448E+01   -.853E-13 0.568E-13 0.430E+01   0.116E-25 0.233E-24 0.183E+00   -.203E-12 0.474E-12 -.172E-03
   0.253E-07 -.102E-06 -.448E+01   -.284E-13 0.114E-12 0.430E+01   -.875E-25 -.258E-25 0.183E+00   -.114E-12 0.517E-12 -.172E-03
   0.253E-07 -.102E-06 -.448E+01   -.114E-12 0.114E-12 0.430E+01   -.171E-25 -.388E-25 0.183E+00   -.185E-12 -.199E-12 -.172E-03
   0.253E-07 -.102E-06 -.448E+01   -.284E-13 0.568E-13 0.430E+01   -.317E-25 -.517E-25 0.183E+00   -.181E-12 -.197E-12 -.172E-03
   -.102E-06 0.254E-07 -.448E+01   0.782E-13 0.935E-13 0.430E+01   -.725E-25 -.155E-24 0.183E+00   -.321E-12 -.259E-12 -.172E-03
   -.102E-06 0.253E-07 -.448E+01   0.107E-12 0.298E-13 0.430E+01   0.182E-24 -.103E-24 0.183E+00   -.149E-12 -.204E-12 -.172E-03
   -.102E-06 0.254E-07 -.448E+01   0.853E-13 0.283E-13 0.430E+01   0.131E-24 -.103E-24 0.183E+00   -.337E-12 0.478E-13 -.172E-03
   -.102E-06 0.254E-07 -.448E+01   0.853E-13 0.352E-13 0.430E+01   -.529E-25 -.129E-24 0.183E+00   -.101E-12 0.313E-12 -.172E-03
   0.253E-07 -.102E-06 -.448E+01   0.107E-13 0.109E-12 0.430E+01   0.788E-26 -.129E-24 0.183E+00   -.157E-12 -.663E-13 -.172E-03
   0.253E-07 -.102E-06 -.448E+01   0.703E-13 0.109E-12 0.430E+01   -.732E-25 0.149E-24 0.183E+00   -.543E-13 -.463E-13 -.172E-03
   0.253E-07 -.102E-06 -.448E+01   0.355E-14 0.228E-12 0.430E+01   -.191E-24 -.388E-25 0.183E+00   -.176E-12 0.430E-12 -.172E-03
   0.253E-07 -.102E-06 -.448E+01   0.633E-14 0.172E-12 0.430E+01   0.108E-24 -.517E-25 0.183E+00   -.671E-13 0.309E-12 -.172E-03
   -.974E-10 -.300E-07 -.362E+01   -.192E-12 -.817E-13 0.341E+01   0.153E-24 0.355E-25 0.217E+00   0.159E-13 0.334E-12 -.138E-03
   -.947E-10 -.300E-07 -.362E+01   -.189E-12 -.853E-13 0.341E+01   0.860E-25 0.517E-25 0.217E+00   -.605E-13 0.284E-12 -.138E-03
   -.976E-10 -.300E-07 -.362E+01   -.203E-12 -.888E-13 0.341E+01   -.122E-24 0.000E+00 0.217E+00   0.943E-13 -.819E-13 -.138E-03
   -.945E-10 -.300E-07 -.362E+01   -.157E-12 -.142E-12 0.341E+01   0.200E-24 -.207E-24 0.217E+00   -.128E-12 -.132E-12 -.138E-03
   -.300E-07 -.970E-10 -.362E+01   -.924E-13 -.227E-12 0.341E+01   -.889E-26 0.258E-25 0.217E+00   -.377E-12 0.165E-12 -.138E-03
   -.300E-07 -.969E-10 -.362E+01   -.888E-13 -.227E-12 0.341E+01   -.780E-25 0.517E-25 0.217E+00   0.209E-12 0.208E-12 -.138E-03
   -.300E-07 -.823E-10 -.362E+01   -.959E-13 -.227E-12 0.341E+01   -.123E-24 0.129E-24 0.217E+00   -.327E-12 -.230E-12 -.138E-03
   -.300E-07 -.956E-10 -.362E+01   -.959E-13 -.114E-12 0.341E+01   -.130E-24 -.103E-24 0.217E+00   0.873E-13 -.218E-12 -.138E-03
   -.959E-10 -.300E-07 -.362E+01   -.174E-12 -.113E-12 0.341E+01   0.501E-25 0.207E-24 0.217E+00   -.238E-12 -.290E-13 -.138E-03
   -.935E-10 -.300E-07 -.362E+01   -.174E-12 -.113E-12 0.341E+01   -.162E-25 0.000E+00 0.217E+00   0.923E-13 -.526E-13 -.138E-03
   -.959E-10 -.300E-07 -.362E+01   -.199E-12 -.167E-12 0.341E+01   -.386E-25 -.517E-25 0.217E+00   -.218E-12 0.238E-12 -.138E-03
   -.933E-10 -.300E-07 -.362E+01   -.142E-12 -.170E-12 0.341E+01   -.545E-26 0.000E+00 0.217E+00   0.148E-12 0.346E-12 -.138E-03
   -.300E-07 -.954E-10 -.362E+01   -.369E-13 -.199E-12 0.341E+01   -.138E-24 0.905E-25 0.217E+00   0.199E-12 -.231E-12 -.138E-03
   -.300E-07 -.998E-10 -.362E+01   -.259E-13 -.256E-12 0.341E+01   0.233E-24 0.258E-25 0.217E+00   -.320E-12 -.206E-12 -.138E-03
   -.300E-07 -.937E-10 -.362E+01   -.414E-13 -.199E-12 0.341E+01   0.448E-25 0.103E-24 0.217E+00   0.175E-12 0.107E-12 -.138E-03
   -.300E-07 -.128E-09 -.362E+01   -.729E-13 -.199E-12 0.341E+01   -.108E-24 0.000E+00 0.217E+00   -.327E-12 0.132E-12 -.138E-03
 -----------------------------------------------------------------------------------------------
   -.294E-06 -.294E-06 -.750E+01   -.295E-12 0.265E-13 -.700E-12   0.775E-15 -.111E-14 0.750E+01   -.290E-11 0.128E-11 -.847E-02
 
 
 POSITION                                       TOTAL-FORCE (eV/Angst)
 -----------------------------------------------------------------------------------
      1.33422      1.32296      1.29477         0.001047     -0.000352     -0.002144
      6.59079      1.35504      1.29477         0.001047     -0.000352     -0.002144
      1.36630      6.57953      1.29477         0.001047     -0.000352     -0.002144
      6.62287      6.61161      1.29477         0.001047     -0.000352     -0.002144
      3.95442      3.96569      1.29477        -0.001047      0.000352     -0.002144
      9.21099      3.99776      1.29477        -0.001047      0.000352     -0.002144
      3.98650      9.22225      1.29477        -0.001047      0.000352     -0.002144
      9.24307      9.25433      1.29477        -0.001047      0.000352     -0.002144
      1.33740      3.93838      9.10521         0.000352     -0.001047     -0.002144
      6.59397      3.97046      9.10521         0.000352     -0.001047     -0.002144
      1.36948      9.19495      9.10521         0.000352     -0.001047     -0.002144
      6.62605      9.22703      9.10521         0.000352     -0.001047     -0.002144
      3.95124      1.35026      9.10521        -0.000352      0.001047     -0.002144
      9.20781      1.38234      9.10521        -0.000352      0.001047     -0.002144
      3.98332      6.60683      9.10521        -0.000352      0.001047     -0.002144
      9.23989      6.63891      9.10521        -0.000352      0.001047     -0.002144
      1.31010      1.32136      6.50173        -0.001047      0.000352     -0.002144
      6.56667      1.35344      6.50173        -0.001047      0.000352     -0.002144
      1.34218      6.57793      6.50173        -0.001047      0.000352     -0.002144
      6.59874      6.61001      6.50173        -0.001047      0.000352     -0.002144
      3.97855      3.96728      6.50173         0.001047     -0.000352     -0.002144
      9.23511      3.99936      6.50173         0.001047     -0.000352     -0.002144
      4.01063      9.22385      6.50173         0.001047     -0.000352     -0.002144
      9.26719      9.25593      6.50173         0.001047     -0.000352     -0.002144
      3.94965      1.32614      3.89825         0.000352     -0.001047     -0.002144
      9.20621      1.35822      3.89825         0.000352     -0.001047     -0.002144
      3.98172      6.58270      3.89825         0.000352     -0.001047     -0.002144
      9.23829      6.61478      3.89825         0.000352     -0.001047     -0.002144
      1.33900      3.96251      3.89825        -0.000352      0.001047     -0.002144
      6.59557      3.99459      3.89825        -0.000352      0.001047     -0.002144
      1.37108      9.21907      3.89825        -0.000352      0.001047     -0.002144
      6.62765      9.25115      3.89825        -0.000352      0.001047     -0.002144
      0.00000      0.00000      5.21300         0.000000      0.000000      0.001345
      5.25657      0.03208      5.21300         0.000000      0.000000      0.001345
      0.03208      5.25657      5.21300         0.000000      0.000000      0.001345
      5.28865      5.28865      5.21300         0.000000      0.000000      0.001345
      2.62828      0.01604      2.60952         0.000000      0.000000      0.001345
      7.88485      0.04812      2.60952         0.000000      0.000000      0.001345
      2.66036      5.27261      2.60952         0.000000      0.000000      0.001345
      7.91693      5.30468      2.60952         0.000000      0.000000      0.001345
      2.64432      2.64432      0.00604         0.000000      0.000000      0.001345
      7.90089      2.67640      0.00604         0.000000      0.000000      0.001345
      2.67640      7.90089      0.00604         0.000000      0.000000      0.001345
      7.93297      7.93297      0.00604         0.000000      0.000000      0.001345
      0.01604      2.62828      7.81648         0.000000      0.000000      0.001345
      5.27261      2.66036      7.81648         0.000000      0.000000      0.001345
      0.04812      7.88485      7.81648         0.000000      0.000000      0.001345
      5.30468      7.91693      7.81648         0.000000      0.000000      0.001345
      0.00000      0.00000      0.00789         0.000000      0.000000      0.002942
      5.25657      0.03208      0.00789         0.000000      0.000000      0.002942
      0.03208      5.25657      0.00789         0.000000      0.000000      0.002942
      5.28865      5.28865      0.00789         0.000000      0.000000      0.002942
      2.62828      0.01604      7.81833         0.000000      0.000000      0.002942
      7.88485      0.04812      7.81833         0.000000      0.000000      0.002942
      2.66036      5.27261      7.81833         0.000000      0.000000      0.002942
      7.91693      5.30468      7.81833         0.000000      0.000000      0.002942
      2.64432      2.64432      5.21485         0.000000      0.000000      0.002942
      7.90089      2.67640      5.21485         0.000000      0.000000      0.002942
      2.67640      7.90089      5.21485         0.000000      0.000000      0.002942
      7.93297      7.93297      5.21485         0.000000      0.000000      0.002942
      0.01604      2.62828      2.61137         0.000000      0.000000      0.002942
      5.27261      2.66036      2.61137         0.000000      0.000000      0.002942
      0.04812      7.88485      2.61137         0.000000      0.000000      0.002942
      5.30468      7.91693      2.61137         0.000000      0.000000      0.002942
 -----------------------------------------------------------------------------------
    total drift:                               -0.000000     -0.000000     -0.006231


--------------------------------------------------------------------------------------------------------



  FREE ENERGIE OF THE ION-ELECTRON SYSTEM (eV)
  ---------------------------------------------------
  free  energy   TOTEN  =      -328.10828028 eV

  energy  without entropy=     -328.10828028  energy(sigma->0) =     -328.10828028
 


--------------------------------------------------------------------------------------------------------


    POTLOK:  cpu time    0.1630: real time    0.1638


--------------------------------------------------------------------------------------------------------


 writing wavefunctions
     LOOP+:  cpu time 2577.5036: real time 2595.7242
    4ORBIT:  cpu time    0.0000: real time    0.0000
 


 total charge     
 
# of ion       s       p       d       tot
------------------------------------------
    1        1.313   2.410   0.000   3.724
    2        1.313   2.410   0.000   3.724
    3        1.313   2.410   0.000   3.724
    4        1.313   2.410   0.000   3.724
    5        1.313   2.410   0.000   3.724
    6        1.313   2.410   0.000   3.724
    7        1.313   2.410   0.000   3.724
    8        1.313   2.410   0.000   3.724
    9        1.313   2.411   0.000   3.724
   10        1.313   2.411   0.000   3.724
   11        1.313   2.411   0.000   3.724
   12        1.313   2.411   0.000   3.724
   13        1.313   2.411   0.000   3.724
   14        1.313   2.411   0.000   3.724
   15        1.313   2.411   0.000   3.724
   16        1.313   2.411   0.000   3.724
   17        1.313   2.410   0.000   3.724
   18        1.313   2.410   0.000   3.724
   19        1.313   2.410   0.000   3.724
   20        1.313   2.410   0.000   3.724
   21        1.313   2.410   0.000   3.724
   22        1.313   2.410   0.000   3.724
   23        1.313   2.410   0.000   3.724
   24        1.313   2.410   0.000   3.724
   25        1.313   2.411   0.000   3.724
   26        1.313   2.411   0.000   3.724
   27        1.313   2.411   0.000   3.724
   28        1.313   2.411   0.000   3.724
   29        1.313   2.411   0.000   3.724
   30        1.313   2.411   0.000   3.724
   31        1.313   2.411   0.000   3.724
   32        1.313   2.411   0.000   3.724
   33        0.260   6.202   8.916  15.378
   34        0.260   6.202   8.916  15.378
   35        0.260   6.202   8.916  15.378
   36        0.260   6.202   8.916  15.378
   37        0.260   6.202   8.917  15.378
   38        0.260   6.202   8.917  15.378
   39        0.260   6.202   8.917  15.378
   40        0.260   6.202   8.917  15.378
   41        0.260   6.202   8.916  15.378
   42        0.260   6.202   8.916  15.378
   43        0.260   6.202   8.916  15.378
   44        0.260   6.202   8.916  15.378
   45        0.260   6.202   8.917  15.378
   46        0.260   6.202   8.917  15.378
   47        0.260   6.202   8.917  15.378
   48        0.260   6.202   8.917  15.378
   49        0.350   6.351   5.820  12.521
   50        0.350   6.351   5.820  12.521
   51        0.350   6.351   5.820  12.521
   52        0.350   6.351   5.820  12.521
   53        0.350   6.351   5.820  12.521
   54        0.350   6.351   5.820  12.521
   55        0.350   6.351   5.820  12.521
   56        0.350   6.351   5.820  12.521
   57        0.350   6.351   5.820  12.521
   58        0.350   6.351   5.820  12.521
   59        0.350   6.351   5.820  12.521
   60        0.350   6.351   5.820  12.521
   61        0.350   6.351   5.820  12.521
   62        0.350   6.351   5.820  12.521
   63        0.350   6.351   5.820  12.521
   64        0.350   6.351   5.820  12.521
--------------------------------------------------
tot         51.790 277.980 235.781 565.551
 


 magnetization (x)
 
# of ion       s       p       d       tot
------------------------------------------
    1       -0.000  -0.003   0.000  -0.003
    2       -0.000  -0.003   0.000  -0.003
    3       -0.000  -0.003   0.000  -0.003
    4       -0.000  -0.003   0.000  -0.003
    5       -0.000  -0.003   0.000  -0.003
    6       -0.000  -0.003   0.000  -0.003
    7       -0.000  -0.003   0.000  -0.003
    8       -0.000  -0.003   0.000  -0.003
    9        0.000   0.003   0.000   0.003
   10        0.000   0.003   0.000   0.003
   11        0.000   0.003   0.000   0.003
   12        0.000   0.003   0.000   0.003
   13        0.000   0.003   0.000   0.003
   14        0.000   0.003   0.000   0.003
   15        0.000   0.003   0.000   0.003
   16        0.000   0.003   0.000   0.003
   17       -0.000  -0.003   0.000  -0.003
   18       -0.000  -0.003   0.000  -0.003
   19       -0.000  -0.003   0.000  -0.003
   20       -0.000  -0.003   0.000  -0.003
   21       -0.000  -0.003   0.000  -0.003
   22       -0.000  -0.003   0.000  -0.003
   23       -0.000  -0.003   0.000  -0.003
   24       -0.000  -0.003   0.000  -0.003
   25        0.000   0.003   0.000   0.003
   26        0.000   0.003   0.000   0.003
   27        0.000   0.003   0.000   0.003
   28        0.000   0.003   0.000   0.003
   29        0.000   0.003   0.000   0.003
   30        0.000   0.003   0.000   0.003
   31        0.000   0.003   0.000   0.003
   32        0.000   0.003   0.000   0.003
   33        0.000   0.000  -0.001   0.000
   34        0.000   0.000  -0.001   0.000
   35        0.000   0.000  -0.001   0.000
   36        0.000   0.000  -0.001   0.000
   37       -0.000  -0.000   0.001  -0.000
   38       -0.000  -0.000   0.001  -0.000
   39       -0.000  -0.000   0.001  -0.000
   40       -0.000  -0.000   0.001  -0.000
   41        0.000   0.000  -0.001   0.000
   42        0.000   0.000  -0.001   0.000
   43        0.000   0.000  -0.001   0.000
   44        0.000   0.000  -0.001   0.000
   45       -0.000  -0.000   0.001  -0.000
   46       -0.000  -0.000   0.001  -0.000
   47       -0.000  -0.000   0.001  -0.000
   48       -0.000  -0.000   0.001  -0.000
   49        0.020   0.054   3.671   3.744
   50        0.020   0.054   3.671   3.744
   51        0.020   0.054   3.671   3.744
   52        0.020   0.054   3.671   3.744
   53       -0.020  -0.054  -3.671  -3.744
   54       -0.020  -0.054  -3.671  -3.744
   55       -0.020  -0.054  -3.671  -3.744
   56       -0.020  -0.054  -3.671  -3.744
   57        0.020   0.054   3.671   3.744
   58        0.020   0.054   3.671   3.744
   59        0.020   0.054   3.671   3.744
   60        0.020   0.054   3.671   3.744
   61       -0.020  -0.054  -3.671  -3.744
   62       -0.020  -0.054  -3.671  -3.744
   63       -0.020  -0.054  -3.671  -3.744
   64       -0.020  -0.054  -3.671  -3.744
--------------------------------------------------
tot         -0.000   0.000  -0.000  -0.000
 
 BZINTS: Fermi energy:  4.986009;688.000000 electrons
         Band energy:***********;  BLOECHL correction:  0.000000

 total amount of memory used by VASP MPI-rank0   301249. kBytes
=======================================================================

   base      :      30000. kBytes
   nonl-proj :     175882. kBytes
   fftplans  :       4588. kBytes
   grid      :      69719. kBytes
   one-center:       1990. kBytes
   wavefun   :      19070. kBytes
 
  
  
 General timing and accounting informations for this job:
 ========================================================
  
                  Total CPU time used (sec):     2628.021
                            User time (sec):     2617.112
                          System time (sec):       10.909
                         Elapsed time (sec):     2647.859
  
                   Maximum memory used (kb):      665444.
                   Average memory used (kb):           0.
  
                          Minor page faults:       490481
                          Major page faults:         5396
                 Voluntary context switches:         7003
