       N       E                     dE             d eps       ncg     rms          ort
SDA:   1    -0.817347919711E+02   -0.81735E+02    0.00000E+00  4784   0.619E-04 0.000E+00
CGA:   2    -0.817348091194E+02   -0.17148E-04   -0.29495E-05  4784   0.430E-04 0.469E-04
CGA:   3    -0.817348159878E+02   -0.68684E-05   -0.48141E-05  4784   0.257E-04 0.297E-04
CGA:   4    -0.817348223416E+02   -0.63538E-05   -0.89402E-06  4784   0.203E-04 0.213E-04
CGA:   5    -0.817348258963E+02   -0.35547E-05   -0.35134E-05  4784   0.126E-04 0.108E-04
CGA:   6    -0.817348281435E+02   -0.22472E-05   -0.37084E-06  4784   0.844E-05 0.953E-05
CGA:   7    -0.817348296073E+02   -0.14637E-05   -0.56186E-06  4784   0.706E-05 0.505E-05
CGA:   8    -0.817348302397E+02   -0.63245E-06   -0.23158E-06  4784   0.565E-05 0.397E-05
CGA:   9    -0.817348309717E+02   -0.73193E-06   -0.15084E-06  4784   0.498E-05 0.346E-05
CGA:  10    -0.817348308272E+02    0.14451E-06   -0.12727E-06  4784   0.489E-05 0.286E-05
CGA:  11    -0.817348311448E+02   -0.31767E-06   -0.10973E-06  4784   0.464E-05 0.220E-05
CGA:  12    -0.817348322855E+02   -0.11406E-05   -0.11312E-05  4784   0.144E-05 0.202E-05
CGA:  13    -0.817348324995E+02   -0.21403E-06   -0.20980E-07  4784   0.123E-05 0.426E-06
CGA:  14    -0.817348329077E+02   -0.40820E-06   -0.13180E-07  4784   0.119E-05 0.124E-05
CGA:  15    -0.817348331938E+02   -0.28607E-06   -0.76309E-08  4784   0.574E-06 0.167E-06
CGA:  16    -0.817348331765E+02    0.17289E-07   -0.43494E-08  4784   0.877E-06 0.147E-06
CGA:  17    -0.817348330766E+02    0.99826E-07   -0.64133E-08  4784   0.759E-06 0.580E-06
CGA:  18    -0.817348332487E+02   -0.17203E-06   -0.46231E-08  4784   0.892E-06-0.165E-06
CGA:  19    -0.817348331447E+02    0.10401E-06   -0.34934E-08  4784   0.915E-06 0.361E-06
CGA:  20    -0.817348330271E+02    0.11752E-06   -0.79101E-08  4784   0.945E-06-0.164E-07
CGA:  21    -0.817348330645E+02   -0.37331E-07   -0.89007E-08  4784   0.906E-06 0.747E-06
CGA:  22    -0.817348331995E+02   -0.13508E-06   -0.44986E-08  4784   0.357E-06 0.159E-06
CGA:  23    -0.817348332784E+02   -0.78871E-07   -0.12295E-08  4784   0.468E-06 0.297E-06
CGA:  24    -0.817348334407E+02   -0.16233E-06   -0.16615E-08  4784   0.785E-06-0.698E-07
CGA:  25    -0.817348333773E+02    0.63454E-07   -0.20877E-08  4784   0.699E-06 0.207E-06
CGA:  26    -0.817348332090E+02    0.16834E-06   -0.47398E-08  4784   0.769E-06-0.357E-07
CGA:  27    -0.817348332304E+02   -0.21490E-07   -0.46739E-08  4784   0.843E-06 0.518E-06
CGA:  28    -0.817348332297E+02    0.77307E-09   -0.21465E-08  4784   0.441E-06 0.725E-07
   1 F= -.81734833E+02 E0= -.81734833E+02  d E =0.000000E+00  mag=    -0.0000     0.0000    -0.0000
