 vasp.5.4.4.18Apr17-6-g9f103f2a35 (build Oct 04 2018 15:53:47) complex          
  
 executed on             LinuxIFC date 2022.10.07  15:46:26
 running on  256 total cores
 distrk:  each k-point on  256 cores,    1 groups
 distr:  one band on NCORES_PER_BAND=  32 cores,    8 groups


--------------------------------------------------------------------------------------------------------


 INCAR:
 POTCAR:    PAW_PBE S 06Sep2000                   
 POTCAR:     PAW_PBE Cu_pv 06Sep2000              
 POTCAR:     PAW_PBE Fe_pv 02Aug2007              
 POTCAR:    PAW_PBE S 06Sep2000                   
   SHA256 =  0fc7481fb0695f01bdc6462160264c5c84044ae9ec85a907d398b887a2bc3132 S/
   COPYR  = (c) Copyright 06Sep2000 Georg Kresse                                
   COPYR  = This file is part of the software VASP. Any use, copying, and all ot
   COPYR  = If you do not have a valid VASP license, you may not use, copy or di
   VRHFIN =S : s2p4                                                             
   LEXCH  = PE                                                                  
   EATOM  =   276.8230 eV,   20.3459 Ry                                         
                                                                                
   TITEL  = PAW_PBE S 06Sep2000                                                 
   LULTRA =        F    use ultrasoft PP ?                                      
   IUNSCR =        1    unscreen: 0-lin 1-nonlin 2-no                           
   RPACOR =    1.500    partial core radius                                     
   POMASS =   32.066; ZVAL   =    6.000    mass and valenz                      
   RCORE  =    1.900    outmost cutoff radius                                   
   RWIGS  =    2.200; RWIGS  =    1.164    wigner-seitz radius (au A)           
   ENMAX  =  258.689; ENMIN  =  194.016 eV                                      
   ICORE  =        2    local potential                                         
   LCOR   =        T    correct aug charges                                     
   LPAW   =        T    paw PP                                                  
   EAUG   =  335.092                                                            
   DEXC   =    0.000                                                            
   RMAX   =    1.942    core radius for proj-oper                               
   RAUG   =    1.300    factor for augmentation sphere                          
   RDEP   =    1.954    radius for radial grids                                 
   RDEPT  =    1.744    core radius for aug-charge                              
                                                                                
   Atomic configuration                                                         
    6 entries                                                                   
     n  l   j            E        occ.                                          
     1  0  0.50     -2405.8406   2.0000                                         
     2  0  0.50      -211.7007   2.0000                                         
     2  1  1.50      -156.4958   6.0000                                         
     3  0  0.50       -17.2562   2.0000                                         
     3  1  0.50        -7.0085   4.0000                                         
     3  2  1.50        -6.8029   0.0000                                         
   Description                                                                  
     l       E           TYP  RCUT    TYP  RCUT                                 
     0    -17.2561641     23  1.900                                             
     0    -15.8743224     23  1.900                                             
     1     -7.0085400     23  1.900                                             
     1     -2.7779785     23  1.900                                             
     2     -6.8029130     23  1.900                                             
  local pseudopotential read in
  partial core-charges read in
  partial kinetic energy density read in
  atomic valenz-charges read in
  non local Contribution for L=           0  read in
    real space projection operators read in
  non local Contribution for L=           0  read in
    real space projection operators read in
  non local Contribution for L=           1  read in
    real space projection operators read in
  non local Contribution for L=           1  read in
    real space projection operators read in
    PAW grid and wavefunctions read in
 
   number of l-projection  operators is LMAX  =           4
   number of lm-projection operators is LMMAX =           8
 
 POTCAR:     PAW_PBE Cu_pv 06Sep2000              
   SHA256 =  cb7b504e2ea725fe1f25c85a9ac77d4012ce94cd394135b722c4e25ec297f1cb Cu
   COPYR  = (c) Copyright 06Sep2000 Georg Kresse                                
   COPYR  = This file is part of the software VASP. Any use, copying, and all ot
   COPYR  = If you do not have a valid VASP license, you may not use, copy or di
   VRHFIN =Cu: d10 p1                                                           
   LEXCH  = PE                                                                  
   EATOM  =  4120.1201 eV,  302.8203 Ry                                         
                                                                                
   TITEL  = PAW_PBE Cu_pv 06Sep2000                                             
   LULTRA =        F    use ultrasoft PP ?                                      
   IUNSCR =        1    unscreen: 0-lin 1-nonlin 2-no                           
   RPACOR =    1.500    partial core radius                                     
   POMASS =   63.546; ZVAL   =   17.000    mass and valenz                      
   RCORE  =    2.000    outmost cutoff radius                                   
   RWIGS  =    2.000; RWIGS  =    1.058    wigner-seitz radius (au A)           
   ENMAX  =  368.648; ENMIN  =  276.486 eV                                      
   RCLOC  =    1.304    cutoff for local pot                                    
   LCOR   =        T    correct aug charges                                     
   LPAW   =        T    paw PP                                                  
   EAUG   =  758.233                                                            
   DEXC   =    0.000                                                            
   RMAX   =    2.046    core radius for proj-oper                               
   RAUG   =    1.300    factor for augmentation sphere                          
   RDEP   =    2.025    radius for radial grids                                 
   RDEPT  =    1.558    core radius for aug-charge                              
                                                                                
   Atomic configuration                                                         
    8 entries                                                                   
     n  l   j            E        occ.                                          
     1  0  0.50     -8850.2467   2.0000                                         
     2  0  0.50     -1062.3498   2.0000                                         
     2  1  1.50      -916.8226   6.0000                                         
     3  0  0.50      -114.6929   2.0000                                         
     3  1  1.50       -72.1325   6.0000                                         
     3  2  2.50        -5.0394  10.0000                                         
     4  0  0.50        -4.6097   1.0000                                         
     4  3  2.50        -1.3606   0.0000                                         
   Description                                                                  
     l       E           TYP  RCUT    TYP  RCUT                                 
     1    -72.1324777     23  1.700                                             
     1     -1.3605826     23  1.700                                             
     2     -5.0393776     23  2.000                                             
     2     -6.3999602     23  2.000                                             
     0     -4.6097062     23  1.800                                             
     0     14.1620818     23  1.800                                             
  local pseudopotential read in
  partial core-charges read in
  partial kinetic energy density read in
  atomic valenz-charges read in
  non local Contribution for L=           1  read in
    real space projection operators read in
  non local Contribution for L=           1  read in
    real space projection operators read in
  non local Contribution for L=           2  read in
    real space projection operators read in
  non local Contribution for L=           2  read in
    real space projection operators read in
  non local Contribution for L=           0  read in
    real space projection operators read in
  non local Contribution for L=           0  read in
    real space projection operators read in
    PAW grid and wavefunctions read in
 
   number of l-projection  operators is LMAX  =           6
   number of lm-projection operators is LMMAX =          18
 
 POTCAR:     PAW_PBE Fe_pv 02Aug2007              
   SHA256 =  5d22e414b1f82158bf2c7ecb8b97b28fd0923e48cadc1c3bf74d524558f5dd32 Fe
   COPYR  = (c) Copyright 02Aug2007 Georg Kresse                                
   COPYR  = This file is part of the software VASP. Any use, copying, and all ot
   COPYR  = If you do not have a valid VASP license, you may not use, copy or di
   VRHFIN =Fe:  3pd7s1                                                          
   LEXCH  = PE                                                                  
   EATOM  =  2457.4239 eV,  180.6156 Ry                                         
                                                                                
   TITEL  = PAW_PBE Fe_pv 02Aug2007                                             
   LULTRA =        F    use ultrasoft PP ?                                      
   IUNSCR =        1    unscreen: 0-lin 1-nonlin 2-no                           
   RPACOR =    1.750    partial core radius                                     
   POMASS =   55.847; ZVAL   =   14.000    mass and valenz                      
   RCORE  =    2.200    outmost cutoff radius                                   
   RWIGS  =    2.200; RWIGS  =    1.164    wigner-seitz radius (au A)           
   ENMAX  =  293.238; ENMIN  =  219.928 eV                                      
   ICORE  =        3    local potential                                         
   LCOR   =        T    correct aug charges                                     
   LPAW   =        T    paw PP                                                  
   EAUG   =  578.342                                                            
   DEXC   =    0.000                                                            
   RMAX   =    2.249    core radius for proj-oper                               
   RAUG   =    1.300    factor for augmentation sphere                          
   RDEP   =    2.296    radius for radial grids                                 
   RDEPT  =    1.766    core radius for aug-charge                              
                                                                                
   Atomic configuration                                                         
    8 entries                                                                   
     n  l   j            E        occ.                                          
     1  0  0.50     -6993.8440   2.0000                                         
     2  0  0.50      -814.6047   2.0000                                         
     2  1  1.50      -693.3689   6.0000                                         
     3  0  0.50       -89.4732   2.0000                                         
     3  1  1.50       -55.6373   6.0000                                         
     3  2  2.50        -3.8151   7.0000                                         
     4  0  0.50        -4.2551   1.0000                                         
     4  3  2.50        -1.3606   0.0000                                         
   Description                                                                  
     l       E           TYP  RCUT    TYP  RCUT                                 
     1    -55.6372668     23  2.000                                             
     1     -5.4423304     23  2.000                                             
     2     -3.8151096     23  2.200                                             
     2     -5.1756922     23  2.200                                             
     0     -4.2550951     23  2.200                                             
     0     27.2116520     23  2.200                                             
     3     -1.3605826     23  2.200                                             
  local pseudopotential read in
  partial core-charges read in
  partial kinetic energy density read in
  atomic valenz-charges read in
  non local Contribution for L=           1  read in
    real space projection operators read in
  non local Contribution for L=           1  read in
    real space projection operators read in
  non local Contribution for L=           2  read in
    real space projection operators read in
  non local Contribution for L=           2  read in
    real space projection operators read in
  non local Contribution for L=           0  read in
    real space projection operators read in
  non local Contribution for L=           0  read in
    real space projection operators read in
    PAW grid and wavefunctions read in
 
   number of l-projection  operators is LMAX  =           6
   number of lm-projection operators is LMMAX =          18
 

 ----------------------------------------------------------------------------- 
|                                                                             |
|  ADVICE TO THIS USER RUNNING 'VASP/VAMP'   (HEAR YOUR MASTER'S VOICE ...):  |
|                                                                             |
|      You enforced a specific xc-type in the INCAR file,                     |
|      a different type was found on the POTCAR file                          |
|          I HOPE YOU KNOW, WHAT YOU ARE  DOING                               |
|                                                                             |
 ----------------------------------------------------------------------------- 

  PAW_PBE S 06Sep2000                   :
 energy of atom  1       EATOM= -276.8230
 kinetic energy error for atom=    0.0007 (will be added to EATOM!!)
   PAW_PBE Cu_pv 06Sep2000              :
 energy of atom  2       EATOM=-4120.1201
 kinetic energy error for atom=    0.0094 (will be added to EATOM!!)
   PAW_PBE Fe_pv 02Aug2007              :
 energy of atom  3       EATOM=-2457.4239
 kinetic energy error for atom=    0.0025 (will be added to EATOM!!)
 
 
 POSCAR: sm_isp_SD0310437-standardized_unitcell  
  positions in direct lattice
  velocities in cartesian coordinates
 exchange correlation table for  LEXCH =       14
   RHO(1)=    0.500       N(1)  =     2000
   RHO(2)=  100.500       N(2)  =     4000
 


--------------------------------------------------------------------------------------------------------


 ion  position               nearest neighbor table
   1  0.251  0.250  0.125-  10 2.29  11 2.29  13 2.30  16 2.30
   2  0.749  0.750  0.125-  10 2.29  11 2.29  13 2.30  16 2.30
   3  0.250  0.749  0.875-  11 2.29  12 2.29  13 2.30  14 2.30
   4  0.750  0.251  0.875-  11 2.29  12 2.29  13 2.30  14 2.30
   5  0.249  0.250  0.625-   9 2.29  12 2.29  14 2.30  15 2.30
   6  0.751  0.750  0.625-   9 2.29  12 2.29  14 2.30  15 2.30
   7  0.750  0.249  0.375-   9 2.29  10 2.29  15 2.30  16 2.30
   8  0.250  0.751  0.375-   9 2.29  10 2.29  15 2.30  16 2.30
   9  0.000  0.000  0.500-   5 2.29   7 2.29   6 2.29   8 2.29
  10  0.500  0.000  0.250-   7 2.29   1 2.29   2 2.29   8 2.29
  11  0.500  0.500  0.000-   1 2.29   4 2.29   3 2.29   2 2.29
  12  0.000  0.500  0.750-   5 2.29   4 2.29   3 2.29   6 2.29
  13  0.000  0.000  0.000-   2 2.30   3 2.30   1 2.30   4 2.30
  14  0.500  0.000  0.750-   3 2.30   6 2.30   4 2.30   5 2.30
  15  0.500  0.500  0.500-   6 2.30   8 2.30   7 2.30   5 2.30
  16  0.000  0.500  0.250-   2 2.30   8 2.30   1 2.30   7 2.30
 
  LATTYP: Found a simple tetragonal cell.
 ALAT       =     5.5217249383
 C/A-ratio  =     1.7515233015
  
  Lattice vectors:
  
 A1 = (   5.5217249383,   0.0000000000,   0.0000000000)
 A2 = (   0.0000000000,   5.5217249383,   0.0000000000)
 A3 = (   0.0000000000,   0.0000000000,   9.6714298937)


Analysis of symmetry for initial positions (statically):
=====================================================================
 Subroutine PRICEL returns following result:
 
  LATTYP: Found a body centered tetragonal cell.
 ALAT       =     5.5217249383
 C/A-ratio  =     1.7515233015
  
  Lattice vectors:
  
 A1 = (   2.7608624691,  -2.7608624691,   4.8357149468)
 A2 = (  -2.7608624691,   2.7608624691,   4.8357149468)
 A3 = (  -2.7608624691,  -2.7608624691,  -4.8357149468)
 
   2 primitive cells build up your supercell.
 

 Routine SETGRP: Setting up the symmetry group for a 
 simple tetragonal supercell.


 Subroutine GETGRP returns: Found  8 space group operations
 (whereof  4 operations were pure point group operations)
 out of a pool of 16 trial point group operations.


The static configuration has the point symmetry S_4 .
 The point group associated with its full space group is D_2d.


Analysis of symmetry for dynamics (positions and initial velocities):
=====================================================================
 Subroutine PRICEL returns following result:
 
  LATTYP: Found a body centered tetragonal cell.
 ALAT       =     5.5217249383
 C/A-ratio  =     1.7515233015
  
  Lattice vectors:
  
 A1 = (   2.7608624691,  -2.7608624691,   4.8357149468)
 A2 = (  -2.7608624691,   2.7608624691,   4.8357149468)
 A3 = (  -2.7608624691,  -2.7608624691,  -4.8357149468)
 
   2 primitive cells build up your supercell.
 

 Routine SETGRP: Setting up the symmetry group for a 
 simple tetragonal supercell.


 Subroutine GETGRP returns: Found  8 space group operations
 (whereof  4 operations were pure point group operations)
 out of a pool of 16 trial point group operations.


The dynamic configuration has the point symmetry S_4 .
 The point group associated with its full space group is D_2d.


Analysis of structural, dynamic, and magnetic symmetry:
=====================================================================
 Subroutine PRICEL returns following result:
 
  LATTYP: Found a body centered tetragonal cell.
 ALAT       =     5.5217249383
 C/A-ratio  =     1.7515233015
  
  Lattice vectors:
  
 A1 = (   2.7608624691,  -2.7608624691,   4.8357149468)
 A2 = (  -2.7608624691,   2.7608624691,   4.8357149468)
 A3 = (  -2.7608624691,  -2.7608624691,  -4.8357149468)
 
   2 primitive cells build up your supercell.
 

 Routine SETGRP: Setting up the symmetry group for a 
 simple tetragonal supercell.


 Subroutine GETGRP returns: Found  8 space group operations
 (whereof  4 operations were pure point group operations)
 out of a pool of 16 trial point group operations.


The (compounded) configuration has the point symmetry S_4 .
 The point group associated with its full space group is D_2d.


 Subroutine INISYM returns: Found  8 space group operations
 (whereof  4 operations are pure point group operations),
 and found     2 'primitive' translations

 
 
 KPOINTS: Automatic mesh                          

Automatic generation of k-mesh.
Space group operators:
 irot       det(A)        alpha          n_x          n_y          n_z        tau_x        tau_y        tau_z
    1     1.000000     0.000001     1.000000     0.000000     0.000000     0.000000     0.000000     0.000000
    2    -1.000000    90.000000     0.000000     0.000000    -1.000000     0.000000     0.000000     0.000000
    3     1.000000   179.999999     0.000000     0.000000     1.000000     0.000000     0.000000     0.000000
    4    -1.000000    90.000000     0.000000     0.000000     1.000000     0.000000     0.000000     0.000000
    5     1.000000   180.000000     0.000000     1.000000     0.000000     0.000000    -0.500000     0.250000
    6    -1.000000   180.000000     0.707107     0.707107     0.000000     0.000000    -0.500000     0.250000
    7     1.000000   180.000000     1.000000     0.000000     0.000000     0.000000    -0.500000     0.250000
    8    -1.000000   180.000000     0.707107    -0.707107     0.000000     0.000000    -0.500000     0.250000
 
 Subroutine IBZKPT returns following result:
 ===========================================
 
 Found     23 irreducible k-points:
 
 Following reciprocal coordinates:
            Coordinates               Weight
  0.000000  0.000000  0.000000      1.000000
  0.166667  0.000000  0.000000      4.000000
  0.333333  0.000000  0.000000      4.000000
  0.500000  0.000000  0.000000      2.000000
  0.166667  0.166667  0.000000      4.000000
  0.333333  0.166667  0.000000      8.000000
  0.500000  0.166667  0.000000      4.000000
  0.333333  0.333333  0.000000      4.000000
  0.500000  0.333333  0.000000      4.000000
  0.500000  0.500000  0.000000      1.000000
  0.000000  0.000000  0.333333      2.000000
  0.166667  0.000000  0.333333      8.000000
  0.333333  0.000000  0.333333      8.000000
  0.500000  0.000000  0.333333      4.000000
  0.166667  0.166667  0.333333      4.000000
  0.333333  0.166667  0.333333      8.000000
  0.500000  0.166667  0.333333      8.000000
 -0.333333  0.166667  0.333333      8.000000
 -0.166667  0.166667  0.333333      4.000000
  0.333333  0.333333  0.333333      4.000000
  0.500000  0.333333  0.333333      8.000000
 -0.333333  0.333333  0.333333      4.000000
  0.500000  0.500000  0.333333      2.000000
 
 Following cartesian coordinates:
            Coordinates               Weight
  0.000000  0.000000  0.000000      1.000000
  0.030184  0.000000  0.000000      4.000000
  0.060368  0.000000  0.000000      4.000000
  0.090551  0.000000  0.000000      2.000000
  0.030184  0.030184  0.000000      4.000000
  0.060368  0.030184  0.000000      8.000000
  0.090551  0.030184  0.000000      4.000000
  0.060368  0.060368  0.000000      4.000000
  0.090551  0.060368  0.000000      4.000000
  0.090551  0.090551  0.000000      1.000000
  0.000000  0.000000  0.034466      2.000000
  0.030184  0.000000  0.034466      8.000000
  0.060368  0.000000  0.034466      8.000000
  0.090551  0.000000  0.034466      4.000000
  0.030184  0.030184  0.034466      4.000000
  0.060368  0.030184  0.034466      8.000000
  0.090551  0.030184  0.034466      8.000000
 -0.060368  0.030184  0.034466      8.000000
 -0.030184  0.030184  0.034466      4.000000
  0.060368  0.060368  0.034466      4.000000
  0.090551  0.060368  0.034466      8.000000
 -0.060368  0.060368  0.034466      4.000000
  0.090551  0.090551  0.034466      2.000000
 
 TETIRR: Found    274 inequivalent tetrahedra from      648


--------------------------------------------------------------------------------------------------------




 Dimension of arrays:
   k-points           NKPTS =     23   k-points in BZ     NKDIM =     23   number of bands    NBANDS=    208
   number of dos      NEDOS =    301   number of ions     NIONS =     16
   non local maximal  LDIM  =      6   non local SUM 2l+1 LMDIM =     18
   total plane-waves  NPLWV = 193536
   max r-space proj   IRMAX =      1   max aug-charges    IRDMAX=  20875
   dimension x,y,z NGX =    48 NGY =   48 NGZ =   84
   dimension x,y,z NGXF=    96 NGYF=   96 NGZF=  168
   support grid    NGXF=    96 NGYF=   96 NGZF=  168
   ions per type =               8   4   4
   NGX,Y,Z   is equivalent  to a cutoff of  14.45, 14.45, 14.44 a.u.
   NGXF,Y,Z  is equivalent  to a cutoff of  28.90, 28.90, 28.88 a.u.

 SYSTEM =  CuFeS2                                  
 POSCAR =  sm_isp_SD0310437-standardized_unitcell  

 Startparameter for this run:
   NWRITE =      2    write-flag & timer
   PREC   = accura    normal or accurate (medium, high low for compatibility)
   ISTART =      1    job   : 0-new  1-cont  2-samecut
   ICHARG =      1    charge: 1-file 2-atom 10-const
   ISPIN  =      1    spin polarized calculation?
   LNONCOLLINEAR =      T non collinear calculations
   LSORBIT =      F    spin-orbit coupling
   INIWAV =      1    electr: 0-lowe 1-rand  2-diag
   LASPH  =      T    aspherical Exc in radial PAW
   METAGGA=      F    non-selfconsistent MetaGGA calc.

 Electronic Relaxation 1
   ENCUT  =  700.0 eV  51.45 Ry    7.17 a.u.  11.91 11.91 20.86*2*pi/ulx,y,z
   ENINI  =  700.0     initial cutoff
   ENAUG  =  758.2 eV  augmentation charge cutoff
   NELM   =    200;   NELMIN=  2; NELMDL=  0     # of ELM steps 
   EDIFF  = 0.1E-07   stopping-criterion for ELM
   LREAL  =      F    real-space projection
   NLSPLINE    = F    spline interpolate recip. space projectors
   LCOMPAT=      F    compatible to vasp.4.4
   GGA_COMPAT  = T    GGA compatible to vasp.4.4-vasp.4.6
   LMAXPAW     = -100 max onsite density
   LMAXMIX     =    4 max onsite mixed and CHGCAR
   VOSKOWN=      0    Vosko Wilk Nusair interpolation
   ROPT   =    0.00000   0.00000   0.00000
 Ionic relaxation
   EDIFFG = -.1E-04   stopping-criterion for IOM
   NSW    =      0    number of steps for IOM
   NBLOCK =      1;   KBLOCK =      1    inner block; outer block 
   IBRION =     -1    ionic relax: 0-MD 1-quasi-New 2-CG
   NFREE  =      0    steps in history (QN), initial steepest desc. (CG)
   ISIF   =      2    stress and relaxation
   IWAVPR =     10    prediction:  0-non 1-charg 2-wave 3-comb
   ISYM   =      1    0-nonsym 1-usesym 2-fastsym
   LCORR  =      T    Harris-Foulkes like correction to forces

   POTIM  = 0.1000    time-step for ionic-motion
   TEIN   =    0.0    initial temperature
   TEBEG  =    0.0;   TEEND  =   0.0 temperature during run
   SMASS  =  -3.00    Nose mass-parameter (am)
   estimated Nose-frequenzy (Omega)   =  0.10E-29 period in steps =****** mass=  -0.697E-27a.u.
   SCALEE = 1.0000    scale energy and forces
   NPACO  =    256;   APACO  = 16.0  distance and # of slots for P.C.
   PSTRESS=    0.0 pullay stress

  Mass of Ions in am
   POMASS =  32.07 63.55 55.85
  Ionic Valenz
   ZVAL   =   6.00 17.00 14.00
  Atomic Wigner-Seitz radii
   RWIGS  =  -1.00 -1.00 -1.00
  virtual crystal weights 
   VCA    =   1.00  1.00  1.00
   NELECT =     172.0000    total number of electrons
   NUPDOWN=      -1.0000    fix difference up-down

 DOS related values:
   EMIN   =  10.00;   EMAX   =-10.00  energy-range for DOS
   EFERMI =   0.00
   ISMEAR =    -5;   SIGMA  =   0.03  broadening in eV -4-tet -1-fermi 0-gaus

 Electronic relaxation 2 (details)
   IALGO  =     58    algorithm
   LDIAG  =      T    sub-space diagonalisation (order eigenvalues)
   LSUBROT=      F    optimize rotation matrix (better conditioning)
   TURBO    =      0    0=normal 1=particle mesh
   IRESTART =      0    0=no restart 2=restart with 2 vectors
   NREBOOT  =      0    no. of reboots
   NMIN     =      0    reboot dimension
   EREF     =   0.00    reference energy to select bands
   IMIX   =      4    mixing-type and parameters
     AMIX     =   0.40;   BMIX     =  1.00
     AMIX_MAG =   1.60;   BMIX_MAG =  1.00
     AMIN     =   0.10
     WC   =   100.;   INIMIX=   1;  MIXPRE=   1;  MAXMIX= -45

 Intra band minimization:
   WEIMIN = 0.0000     energy-eigenvalue tresh-hold
   EBREAK =  0.12E-10  absolut break condition
   DEPER  =   0.30     relativ break condition  

   TIME   =   0.40     timestep for ELM

  volume/ion in A,a.u.               =      18.43       124.37
  Fermi-wavevector in a.u.,A,eV,Ry     =   1.367847  2.584856 25.456580  1.871006
  Thomas-Fermi vector in A             =   2.493864
 
 Write flags
   LWAVE        =      T    write WAVECAR
   LDOWNSAMPLE  =      F    k-point downsampling of WAVECAR
   LCHARG       =      T    write CHGCAR
   LVTOT        =      F    write LOCPOT, total local potential
   LVHAR        =      F    write LOCPOT, Hartree potential only
   LELF         =      F    write electronic localiz. function (ELF)
   LORBIT       =     11    0 simple, 1 ext, 2 COOP (PROOUT), +10 PAW based schemes


 Dipole corrections
   LMONO  =      F    monopole corrections only (constant potential shift)
   LDIPOL =      F    correct potential (dipole corrections)
   IDIPOL =      0    1-x, 2-y, 3-z, 4-all directions 
   EPSILON=  1.0000000 bulk dielectric constant

 LDA+U is selected, type is set to LDAUTYPE =  2
   angular momentum for each species LDAUL =     2    2    2
   U (eV)           for each species LDAUU =   0.0  0.1  4.7
   J (eV)           for each species LDAUJ =   0.0  0.0  0.0
 Exchange correlation treatment:
   GGA     =    PS    GGA type
   LEXCH   =    14    internal setting for exchange type
   VOSKOWN=      0    Vosko Wilk Nusair interpolation
   LHFCALC =     F    Hartree Fock is set to
   LHFONE  =     F    Hartree Fock one center treatment
   AEXX    =    0.0000 exact exchange contribution

 Linear response parameters
   LEPSILON=     F    determine dielectric tensor
   LRPA    =     F    only Hartree local field effects (RPA)
   LNABLA  =     F    use nabla operator in PAW spheres
   LVEL    =     F    velocity operator in full k-point grid
   LINTERFAST=   F  fast interpolation
   KINTER  =     0    interpolate to denser k-point grid
   CSHIFT  =0.1000    complex shift for real part using Kramers Kronig
   OMEGAMAX=  -1.0    maximum frequency
   DEG_THRESHOLD= 0.2000000E-02 threshold for treating states as degnerate
   RTIME   =   -0.100 relaxation time in fs
  (WPLASMAI=    0.000 imaginary part of plasma frequency in eV, 0.658/RTIME)
   DFIELD  = 0.0000000 0.0000000 0.0000000 field for delta impulse in time
 
 Orbital magnetization related:
   ORBITALMAG=     F  switch on orbital magnetization
   LCHIMAG   =     F  perturbation theory with respect to B field
   DQ        =  0.001000  dq finite difference perturbation B field
   LLRAUG    =     F  two centre corrections for induced B field



--------------------------------------------------------------------------------------------------------


 Static calculation
 charge density and potential will be updated during run
 non collinear spin polarized calculation
 Conjugate gradient for all bands (Freysoldt, et al. PRB 79, 241103 (2009))
 preconditioned conjugated gradient                                        
 perform sub-space diagonalisation
    before iterative eigenvector-optimisation
 modified Broyden-mixing scheme, WC =      100.0
 initial mixing is a Kerker type mixing with AMIX =  0.4000 and BMIX =      1.0000
 Hartree-type preconditioning will be used
 using additional bands          122
 reciprocal scheme for non local part
 use partial core corrections
 no Harris-corrections to forces 
 use gradient corrections 
 use of overlap-Matrix (Vanderbilt PP)
 Fermi weights with tetrahedron method with Bloechl corrections


--------------------------------------------------------------------------------------------------------


  energy-cutoff  :      700.00
  volume of cell :      294.88
      direct lattice vectors                 reciprocal lattice vectors
     5.521724938  0.000000000  0.000000000     0.181102828  0.000000000  0.000000000
     0.000000000  5.521724938  0.000000000     0.000000000  0.181102828  0.000000000
     0.000000000  0.000000000  9.671429894     0.000000000  0.000000000  0.103397327

  length of vectors
     5.521724938  5.521724938  9.671429894     0.181102828  0.181102828  0.103397327


 
 old parameters found on file WAVECAR:
  energy-cutoff  :      700.00
  volume of cell :      294.81
      direct lattice vectors                 reciprocal lattice vectors
     5.521724938  0.000000000  0.000000000     0.181102828  0.000000000  0.000000000
     0.000000000  5.521724938  0.000000000     0.000000000  0.181102828  0.000000000
     0.000000000  0.000000000  9.669176755     0.000000000  0.000000000  0.103421421

  length of vectors

 
 k-points in units of 2pi/SCALE and weight: Automatic mesh                          
   0.00000000  0.00000000  0.00000000       0.009
   0.03018380  0.00000000  0.00000000       0.037
   0.06036761  0.00000000  0.00000000       0.037
   0.09055141  0.00000000  0.00000000       0.019
   0.03018380  0.03018380  0.00000000       0.037
   0.06036761  0.03018380  0.00000000       0.074
   0.09055141  0.03018380  0.00000000       0.037
   0.06036761  0.06036761  0.00000000       0.037
   0.09055141  0.06036761  0.00000000       0.037
   0.09055141  0.09055141  0.00000000       0.009
   0.00000000  0.00000000  0.03446578       0.019
   0.03018380  0.00000000  0.03446578       0.074
   0.06036761  0.00000000  0.03446578       0.074
   0.09055141  0.00000000  0.03446578       0.037
   0.03018380  0.03018380  0.03446578       0.037
   0.06036761  0.03018380  0.03446578       0.074
   0.09055141  0.03018380  0.03446578       0.074
  -0.06036761  0.03018380  0.03446578       0.074
  -0.03018380  0.03018380  0.03446578       0.037
   0.06036761  0.06036761  0.03446578       0.037
   0.09055141  0.06036761  0.03446578       0.074
  -0.06036761  0.06036761  0.03446578       0.037
   0.09055141  0.09055141  0.03446578       0.019
 
 k-points in reciprocal lattice and weights: Automatic mesh                          
   0.00000000  0.00000000  0.00000000       0.009
   0.16666667  0.00000000  0.00000000       0.037
   0.33333333  0.00000000  0.00000000       0.037
   0.50000000  0.00000000  0.00000000       0.019
   0.16666667  0.16666667  0.00000000       0.037
   0.33333333  0.16666667  0.00000000       0.074
   0.50000000  0.16666667  0.00000000       0.037
   0.33333333  0.33333333  0.00000000       0.037
   0.50000000  0.33333333  0.00000000       0.037
   0.50000000  0.50000000  0.00000000       0.009
   0.00000000  0.00000000  0.33333333       0.019
   0.16666667  0.00000000  0.33333333       0.074
   0.33333333  0.00000000  0.33333333       0.074
   0.50000000  0.00000000  0.33333333       0.037
   0.16666667  0.16666667  0.33333333       0.037
   0.33333333  0.16666667  0.33333333       0.074
   0.50000000  0.16666667  0.33333333       0.074
  -0.33333333  0.16666667  0.33333333       0.074
  -0.16666667  0.16666667  0.33333333       0.037
   0.33333333  0.33333333  0.33333333       0.037
   0.50000000  0.33333333  0.33333333       0.074
  -0.33333333  0.33333333  0.33333333       0.037
   0.50000000  0.50000000  0.33333333       0.019
 
 position of ions in fractional coordinates (direct lattice) 
   0.25088389  0.25000000  0.12500000
   0.74911614  0.75000000  0.12500000
   0.25000000  0.74911614  0.87500000
   0.75000000  0.25088389  0.87500000
   0.24911611  0.25000000  0.62500000
   0.75088386  0.75000000  0.62500000
   0.75000000  0.24911611  0.37500000
   0.25000000  0.75088386  0.37500000
   0.00000000  0.00000000  0.50000000
   0.50000000  0.00000000  0.25000000
   0.50000000  0.50000000  0.00000000
   0.00000000  0.50000000  0.75000000
   0.00000000  0.00000000  0.00000000
   0.50000000  0.00000000  0.75000000
   0.50000000  0.50000000  0.50000000
   0.00000000  0.50000000  0.25000000
 
 position of ions in cartesian coordinates  (Angst):
   1.38531181  1.38043123  1.20892874
   4.13641330  4.14129370  1.20892874
   1.38043123  4.13641330  8.46250116
   4.14129370  1.38531181  8.46250116
   1.37555066  1.38043123  6.04464368
   4.14617411  4.14129370  6.04464368
   4.14129370  1.37555066  3.62678621
   1.38043123  4.14617411  3.62678621
   0.00000000  0.00000000  4.83571495
   2.76086247  0.00000000  2.41785747
   2.76086247  2.76086247  0.00000000
   0.00000000  2.76086247  7.25357242
   0.00000000  0.00000000  0.00000000
   2.76086247  0.00000000  7.25357242
   2.76086247  2.76086247  4.83571495
   0.00000000  2.76086247  2.41785747
 
 Euler angles ALPHA=     0.0000000  BETA=     0.0000000

 transformation matrix from SAXIS to cartesian coordinates
 ---------------------------------------------------------
     1.0000000 m_x     0.0000000 m_y     0.0000000 m_z
     0.0000000 m_x     1.0000000 m_y     0.0000000 m_z
     0.0000000 m_x     0.0000000 m_y     1.0000000 m_z

 transformation matrix from cartesian coordinates to SAXIS
 ---------------------------------------------------------
     1.0000000 m_x     0.0000000 m_y     0.0000000 m_z
     0.0000000 m_x     1.0000000 m_y     0.0000000 m_z
     0.0000000 m_x     0.0000000 m_y     1.0000000 m_z




--------------------------------------------------------------------------------------------------------


 k-point  1 :   0.0000 0.0000 0.0000  plane waves:   24762
 k-point  2 :   0.1667 0.0000 0.0000  plane waves:   24716
 k-point  3 :   0.3333 0.0000 0.0000  plane waves:   24788
 k-point  4 :   0.5000 0.0000 0.0000  plane waves:   24840
 k-point  5 :   0.1667 0.1667 0.0000  plane waves:   24754
 k-point  6 :   0.3333 0.1667 0.0000  plane waves:   24796
 k-point  7 :   0.5000 0.1667 0.0000  plane waves:   24856
 k-point  8 :   0.3333 0.3333 0.0000  plane waves:   24854
 k-point  9 :   0.5000 0.3333 0.0000  plane waves:   24772
 k-point 10 :   0.5000 0.5000 0.0000  plane waves:   24784
 k-point 11 :   0.0000 0.0000 0.3333  plane waves:   24796
 k-point 12 :   0.1667 0.0000 0.3333  plane waves:   24750
 k-point 13 :   0.3333 0.0000 0.3333  plane waves:   24798
 k-point 14 :   0.5000 0.0000 0.3333  plane waves:   24800
 k-point 15 :   0.1667 0.1667 0.3333  plane waves:   24806
 k-point 16 :   0.3333 0.1667 0.3333  plane waves:   24812
 k-point 17 :   0.5000 0.1667 0.3333  plane waves:   24804
 k-point 18 :  -0.3333 0.1667 0.3333  plane waves:   24812
 k-point 19 :  -0.1667 0.1667 0.3333  plane waves:   24806
 k-point 20 :   0.3333 0.3333 0.3333  plane waves:   24794
 k-point 21 :   0.5000 0.3333 0.3333  plane waves:   24832
 k-point 22 :  -0.3333 0.3333 0.3333  plane waves:   24794
 k-point 23 :   0.5000 0.5000 0.3333  plane waves:   24824

 maximum and minimum number of plane-waves per node :       820      736

 maximum number of plane-waves:     24856
 maximum index in each direction: 
   IXMAX=   12   IYMAX=   11   IZMAX=   20
   IXMIN=  -12   IYMIN=  -12   IZMIN=  -21


 parallel 3D FFT for wavefunctions:
    minimum data exchange during FFTs selected (reduces bandwidth)
 parallel 3D FFT for charge:
    minimum data exchange during FFTs selected (reduces bandwidth)


 total amount of memory used by VASP MPI-rank0    64376. kBytes
=======================================================================

   base      :      30000. kBytes
   nonl-proj :       3995. kBytes
   fftplans  :       1279. kBytes
   grid      :       5160. kBytes
   one-center:         62. kBytes
   wavefun   :      23880. kBytes
 
     INWAV:  cpu time    5.7920: real time    5.9060
 Broyden mixing: mesh for mixing (old mesh)
   NGX = 23   NGY = 23   NGZ = 41
  (NGX  = 96   NGY  = 96   NGZ  =168)
  gives a total of  21689 points

 initial charge density was supplied:
 number of electron     172.0000150 magnetization      -0.0000000      0.0000000      0.0000000
 charge density for first step will be calculated from the start-wavefunctions


--------------------------------------------------------------------------------------------------------


 BZINTS: Fermi energy:  4.605269;172.000000 electrons
         Band energy:***********;  BLOECHL correction:  0.000000
 Maximum index for augmentation-charges          861 (set IRDMAX)


--------------------------------------------------------------------------------------------------------


 initial charge from wavefunction
 First call to EWALD:  gamma=   0.266
 Maximum number of real-space cells 3x 3x 2
 Maximum number of reciprocal cells 2x 2x 4

    FEWALD:  cpu time    0.0209: real time    0.0209

 ----------------------------------------------------------------------------- 
|                                                                             |
|           W    W    AA    RRRRR   N    N  II  N    N   GGGG   !!!           |
|           W    W   A  A   R    R  NN   N  II  NN   N  G    G  !!!           |
|           W    W  A    A  R    R  N N  N  II  N N  N  G       !!!           |
|           W WW W  AAAAAA  RRRRR   N  N N  II  N  N N  G  GGG   !            |
|           WW  WW  A    A  R   R   N   NN  II  N   NN  G    G                |
|           W    W  A    A  R    R  N    N  II  N    N   GGGG   !!!           |
|                                                                             |
|      ALGO=A and IALGO=5X tend to fail with the tetrahedron method           |
|      (e.g. Bloechls method ISMEAR=-5 is not variational)                    |
|      please switch to IMSEAR=0-n, except for DOS calculations               |
|      For DOS calculations use IALGO=53 after preconverging with ISMEAR>=0   |
|          I HOPE YOU KNOW, WHAT YOU ARE  DOING                               |
|                                                                             |
 ----------------------------------------------------------------------------- 



--------------------------------------- Iteration      1(   1)  ---------------------------------------


    POTLOK:  cpu time    0.0905: real time    0.0906
    SETDIJ:  cpu time    0.6364: real time    0.6366
    TRIAL :  cpu time    3.8188: real time    3.8694
 BZINTS: Fermi energy:  4.605261;172.000000 electrons
         Band energy:***********;  BLOECHL correction:  0.000000
 BZINTS: Fermi energy:  4.605262;172.000000 electrons
         Band energy:***********;  BLOECHL correction:  0.000000
    CORREC:  cpu time    2.9859: real time    2.9885
    CHARGE:  cpu time    0.9101: real time    0.9104
    --------------------------------------------
      LOOP:  cpu time    8.4496: real time    8.6267

 eigenvalue-minimisations  :     0
 total energy-change (2. order) :-0.8173479E+02  (-0.2949514E-05)
 number of electron     172.0000150 magnetization       0.0000000      0.0000000      0.0000000
 augmentation part       70.5873106 magnetization       0.0000010     -0.0000003     -0.0000706

 Free energy of the ion-electron system (eV)
  ---------------------------------------------------
  alpha Z        PSCENC =       574.63678771
  Ewald energy   TEWEN  =    -15517.83223551
  -Hartree energ DENC   =    -10795.16233827
  -exchange      EXHF   =         0.00000000
  -V(xc)+E(xc)   XCENC  =       820.64143785
  PAW double counting   =     27751.33092358   -28673.10169610
  entropy T*S    EENTRO =         0.00000000
  eigenvalues    EBANDS =     -2747.26394814
  atomic energy  EATOM  =     28505.01627691
  ---------------------------------------------------
  free energy    TOTEN  =       -81.73479197 eV

  energy without entropy =      -81.73479197  energy(sigma->0) =      -81.73479197


--------------------------------------------------------------------------------------------------------




--------------------------------------- Iteration      1(   2)  ---------------------------------------


    POTLOK:  cpu time    0.0908: real time    0.0908
    SETDIJ:  cpu time    0.6374: real time    0.6377
    TRIAL :  cpu time    2.4352: real time    2.4380
 BZINTS: Fermi energy:  4.605264;172.000000 electrons
         Band energy:***********;  BLOECHL correction:  0.000000
 BZINTS: Fermi energy:  4.605263;172.000000 electrons
         Band energy:***********;  BLOECHL correction:  0.000000
    CORREC:  cpu time    2.9872: real time    2.9898
    CHARGE:  cpu time    0.9152: real time    0.9155
    --------------------------------------------
      LOOP:  cpu time    7.0861: real time    7.0932

 eigenvalue-minimisations  :     0
 total energy-change (2. order) :-0.1714831E-04  (-0.4814132E-05)
 number of electron     172.0000150 magnetization      -0.0000000      0.0000000      0.0000000
 augmentation part       70.5873108 magnetization       0.0000010     -0.0000002     -0.0000706

 Free energy of the ion-electron system (eV)
  ---------------------------------------------------
  alpha Z        PSCENC =       574.63678771
  Ewald energy   TEWEN  =    -15517.83223551
  -Hartree energ DENC   =    -10795.16231577
  -exchange      EXHF   =         0.00000000
  -V(xc)+E(xc)   XCENC  =       820.64140933
  PAW double counting   =     27751.33084082   -28673.10161388
  entropy T*S    EENTRO =         0.00000000
  eigenvalues    EBANDS =     -2747.26395873
  atomic energy  EATOM  =     28505.01627691
  ---------------------------------------------------
  free energy    TOTEN  =       -81.73480912 eV

  energy without entropy =      -81.73480912  energy(sigma->0) =      -81.73480912


--------------------------------------------------------------------------------------------------------




--------------------------------------- Iteration      1(   3)  ---------------------------------------


    POTLOK:  cpu time    0.0895: real time    0.0895
    SETDIJ:  cpu time    0.6358: real time    0.6360
    TRIAL :  cpu time    2.4284: real time    2.4311
 BZINTS: Fermi energy:  4.605255;172.000000 electrons
         Band energy:***********;  BLOECHL correction:  0.000000
 BZINTS: Fermi energy:  4.605260;172.000000 electrons
         Band energy:***********;  BLOECHL correction:  0.000000
    CORREC:  cpu time    2.9997: real time    3.0024
    CHARGE:  cpu time    0.9171: real time    0.9174
    --------------------------------------------
      LOOP:  cpu time    7.0885: real time    7.0981

 eigenvalue-minimisations  :     0
 total energy-change (2. order) :-0.6868440E-05  (-0.8940179E-06)
 number of electron     172.0000150 magnetization       0.0000000     -0.0000000     -0.0000000
 augmentation part       70.5873108 magnetization       0.0000009     -0.0000002     -0.0000706

 Free energy of the ion-electron system (eV)
  ---------------------------------------------------
  alpha Z        PSCENC =       574.63678771
  Ewald energy   TEWEN  =    -15517.83223551
  -Hartree energ DENC   =    -10795.16229323
  -exchange      EXHF   =         0.00000000
  -V(xc)+E(xc)   XCENC  =       820.64141094
  PAW double counting   =     27751.33073175   -28673.10150626
  entropy T*S    EENTRO =         0.00000000
  eigenvalues    EBANDS =     -2747.26398829
  atomic energy  EATOM  =     28505.01627691
  ---------------------------------------------------
  free energy    TOTEN  =       -81.73481599 eV

  energy without entropy =      -81.73481599  energy(sigma->0) =      -81.73481599


--------------------------------------------------------------------------------------------------------




--------------------------------------- Iteration      1(   4)  ---------------------------------------


    POTLOK:  cpu time    0.0927: real time    0.0927
    SETDIJ:  cpu time    0.6419: real time    0.6421
    TRIAL :  cpu time    2.4281: real time    2.4307
 BZINTS: Fermi energy:  4.605262;172.000000 electrons
         Band energy:***********;  BLOECHL correction:  0.000000
 BZINTS: Fermi energy:  4.605262;172.000000 electrons
         Band energy:***********;  BLOECHL correction:  0.000000
    CORREC:  cpu time    3.0085: real time    3.0111
    CHARGE:  cpu time    0.9152: real time    0.9155
    --------------------------------------------
      LOOP:  cpu time    7.1048: real time    7.1137

 eigenvalue-minimisations  :     0
 total energy-change (2. order) :-0.6353763E-05  (-0.3513368E-05)
 number of electron     172.0000150 magnetization       0.0000000      0.0000000     -0.0000000
 augmentation part       70.5873110 magnetization       0.0000010     -0.0000000     -0.0000706

 Free energy of the ion-electron system (eV)
  ---------------------------------------------------
  alpha Z        PSCENC =       574.63678771
  Ewald energy   TEWEN  =    -15517.83223551
  -Hartree energ DENC   =    -10795.16229039
  -exchange      EXHF   =         0.00000000
  -V(xc)+E(xc)   XCENC  =       820.64140022
  PAW double counting   =     27751.33075066   -28673.10152473
  entropy T*S    EENTRO =         0.00000000
  eigenvalues    EBANDS =     -2747.26398721
  atomic energy  EATOM  =     28505.01627691
  ---------------------------------------------------
  free energy    TOTEN  =       -81.73482234 eV

  energy without entropy =      -81.73482234  energy(sigma->0) =      -81.73482234


--------------------------------------------------------------------------------------------------------




--------------------------------------- Iteration      1(   5)  ---------------------------------------


    POTLOK:  cpu time    0.0898: real time    0.0898
    SETDIJ:  cpu time    0.6360: real time    0.6362
    TRIAL :  cpu time    2.4599: real time    2.4625
 BZINTS: Fermi energy:  4.605256;172.000000 electrons
         Band energy:***********;  BLOECHL correction:  0.000000
 BZINTS: Fermi energy:  4.605259;172.000000 electrons
         Band energy:***********;  BLOECHL correction:  0.000000
    CORREC:  cpu time    2.9873: real time    2.9900
    CHARGE:  cpu time    0.9121: real time    0.9124
    --------------------------------------------
      LOOP:  cpu time    7.1027: real time    7.1117

 eigenvalue-minimisations  :     0
 total energy-change (2. order) :-0.3554705E-05  (-0.3708388E-06)
 number of electron     172.0000150 magnetization       0.0000000      0.0000000     -0.0000000
 augmentation part       70.5873110 magnetization       0.0000008     -0.0000001     -0.0000706

 Free energy of the ion-electron system (eV)
  ---------------------------------------------------
  alpha Z        PSCENC =       574.63678771
  Ewald energy   TEWEN  =    -15517.83223551
  -Hartree energ DENC   =    -10795.16229319
  -exchange      EXHF   =         0.00000000
  -V(xc)+E(xc)   XCENC  =       820.64140412
  PAW double counting   =     27751.33083991   -28673.10161320
  entropy T*S    EENTRO =         0.00000000
  eigenvalues    EBANDS =     -2747.26399265
  atomic energy  EATOM  =     28505.01627691
  ---------------------------------------------------
  free energy    TOTEN  =       -81.73482590 eV

  energy without entropy =      -81.73482590  energy(sigma->0) =      -81.73482590


--------------------------------------------------------------------------------------------------------




--------------------------------------- Iteration      1(   6)  ---------------------------------------


    POTLOK:  cpu time    0.0902: real time    0.0902
    SETDIJ:  cpu time    0.6371: real time    0.6374
    TRIAL :  cpu time    2.4487: real time    2.4514
 BZINTS: Fermi energy:  4.605253;172.000000 electrons
         Band energy:***********;  BLOECHL correction:  0.000000
 BZINTS: Fermi energy:  4.605257;172.000000 electrons
         Band energy:***********;  BLOECHL correction:  0.000000
    CORREC:  cpu time    3.0041: real time    3.0067
    CHARGE:  cpu time    0.9168: real time    0.9171
    --------------------------------------------
      LOOP:  cpu time    7.1146: real time    7.1239

 eigenvalue-minimisations  :     0
 total energy-change (2. order) :-0.2247227E-05  (-0.5618597E-06)
 number of electron     172.0000150 magnetization      -0.0000000      0.0000000      0.0000000
 augmentation part       70.5873110 magnetization       0.0000007     -0.0000001     -0.0000706

 Free energy of the ion-electron system (eV)
  ---------------------------------------------------
  alpha Z        PSCENC =       574.63678771
  Ewald energy   TEWEN  =    -15517.83223551
  -Hartree energ DENC   =    -10795.16229270
  -exchange      EXHF   =         0.00000000
  -V(xc)+E(xc)   XCENC  =       820.64140040
  PAW double counting   =     27751.33088134   -28673.10165430
  entropy T*S    EENTRO =         0.00000000
  eigenvalues    EBANDS =     -2747.26399199
  atomic energy  EATOM  =     28505.01627691
  ---------------------------------------------------
  free energy    TOTEN  =       -81.73482814 eV

  energy without entropy =      -81.73482814  energy(sigma->0) =      -81.73482814


--------------------------------------------------------------------------------------------------------




--------------------------------------- Iteration      1(   7)  ---------------------------------------


    POTLOK:  cpu time    0.0918: real time    0.0918
    SETDIJ:  cpu time    0.6354: real time    0.6356
    TRIAL :  cpu time    2.4258: real time    2.4282
 BZINTS: Fermi energy:  4.605264;172.000000 electrons
         Band energy:***********;  BLOECHL correction:  0.000000
 BZINTS: Fermi energy:  4.605258;172.000000 electrons
         Band energy:***********;  BLOECHL correction:  0.000000
    CORREC:  cpu time    2.9827: real time    2.9856
    CHARGE:  cpu time    0.9138: real time    0.9140
    --------------------------------------------
      LOOP:  cpu time    7.0676: real time    7.0763

 eigenvalue-minimisations  :     0
 total energy-change (2. order) :-0.1463744E-05  (-0.2315757E-06)
 number of electron     172.0000150 magnetization      -0.0000000      0.0000000     -0.0000000
 augmentation part       70.5873110 magnetization       0.0000007     -0.0000001     -0.0000706

 Free energy of the ion-electron system (eV)
  ---------------------------------------------------
  alpha Z        PSCENC =       574.63678771
  Ewald energy   TEWEN  =    -15517.83223551
  -Hartree energ DENC   =    -10795.16229708
  -exchange      EXHF   =         0.00000000
  -V(xc)+E(xc)   XCENC  =       820.64139927
  PAW double counting   =     27751.33097883   -28673.10175163
  entropy T*S    EENTRO =         0.00000000
  eigenvalues    EBANDS =     -2747.26398811
  atomic energy  EATOM  =     28505.01627691
  ---------------------------------------------------
  free energy    TOTEN  =       -81.73482961 eV

  energy without entropy =      -81.73482961  energy(sigma->0) =      -81.73482961


--------------------------------------------------------------------------------------------------------




--------------------------------------- Iteration      1(   8)  ---------------------------------------


    POTLOK:  cpu time    0.0905: real time    0.0905
    SETDIJ:  cpu time    0.6380: real time    0.6382
    TRIAL :  cpu time    2.4284: real time    2.4308
 BZINTS: Fermi energy:  4.605252;172.000000 electrons
         Band energy:***********;  BLOECHL correction:  0.000000
 BZINTS: Fermi energy:  4.605257;172.000000 electrons
         Band energy:***********;  BLOECHL correction:  0.000000
    CORREC:  cpu time    2.9808: real time    2.9836
    CHARGE:  cpu time    0.9122: real time    0.9125
    --------------------------------------------
      LOOP:  cpu time    7.0682: real time    7.0774

 eigenvalue-minimisations  :     0
 total energy-change (2. order) :-0.6324517E-06  (-0.1508443E-06)
 number of electron     172.0000150 magnetization      -0.0000000      0.0000000      0.0000000
 augmentation part       70.5873111 magnetization       0.0000007     -0.0000001     -0.0000706

 Free energy of the ion-electron system (eV)
  ---------------------------------------------------
  alpha Z        PSCENC =       574.63678771
  Ewald energy   TEWEN  =    -15517.83223551
  -Hartree energ DENC   =    -10795.16229886
  -exchange      EXHF   =         0.00000000
  -V(xc)+E(xc)   XCENC  =       820.64139864
  PAW double counting   =     27751.33103209   -28673.10180477
  entropy T*S    EENTRO =         0.00000000
  eigenvalues    EBANDS =     -2747.26398646
  atomic energy  EATOM  =     28505.01627691
  ---------------------------------------------------
  free energy    TOTEN  =       -81.73483024 eV

  energy without entropy =      -81.73483024  energy(sigma->0) =      -81.73483024


--------------------------------------------------------------------------------------------------------




--------------------------------------- Iteration      1(   9)  ---------------------------------------


    POTLOK:  cpu time    0.0911: real time    0.0911
    SETDIJ:  cpu time    0.6372: real time    0.6375
    TRIAL :  cpu time    2.4302: real time    2.4326
 BZINTS: Fermi energy:  4.605261;172.000000 electrons
         Band energy:***********;  BLOECHL correction:  0.000000
 BZINTS: Fermi energy:  4.605258;172.000000 electrons
         Band energy:***********;  BLOECHL correction:  0.000000
    CORREC:  cpu time    2.9822: real time    2.9850
    CHARGE:  cpu time    0.9130: real time    0.9133
    --------------------------------------------
      LOOP:  cpu time    7.0716: real time    7.0808

 eigenvalue-minimisations  :     0
 total energy-change (2. order) :-0.7319322E-06  (-0.1272687E-06)
 number of electron     172.0000150 magnetization       0.0000000      0.0000000      0.0000000
 augmentation part       70.5873111 magnetization       0.0000007     -0.0000001     -0.0000706

 Free energy of the ion-electron system (eV)
  ---------------------------------------------------
  alpha Z        PSCENC =       574.63678771
  Ewald energy   TEWEN  =    -15517.83223551
  -Hartree energ DENC   =    -10795.16230063
  -exchange      EXHF   =         0.00000000
  -V(xc)+E(xc)   XCENC  =       820.64139760
  PAW double counting   =     27751.33106141   -28673.10183403
  entropy T*S    EENTRO =         0.00000000
  eigenvalues    EBANDS =     -2747.26398444
  atomic energy  EATOM  =     28505.01627691
  ---------------------------------------------------
  free energy    TOTEN  =       -81.73483097 eV

  energy without entropy =      -81.73483097  energy(sigma->0) =      -81.73483097


--------------------------------------------------------------------------------------------------------




--------------------------------------- Iteration      1(  10)  ---------------------------------------


    POTLOK:  cpu time    0.0890: real time    0.0890
    SETDIJ:  cpu time    0.6364: real time    0.6365
    TRIAL :  cpu time    2.4543: real time    2.4570
 BZINTS: Fermi energy:  4.605251;172.000000 electrons
         Band energy:***********;  BLOECHL correction:  0.000000
 BZINTS: Fermi energy:  4.605257;172.000000 electrons
         Band energy:***********;  BLOECHL correction:  0.000000
    CORREC:  cpu time    2.9851: real time    2.9879
    CHARGE:  cpu time    0.9135: real time    0.9137
    --------------------------------------------
      LOOP:  cpu time    7.0959: real time    7.1051

 eigenvalue-minimisations  :     0
 total energy-change (2. order) : 0.1445078E-06  (-0.1097304E-06)
 number of electron     172.0000150 magnetization       0.0000000      0.0000000      0.0000000
 augmentation part       70.5873111 magnetization       0.0000006     -0.0000001     -0.0000706

 Free energy of the ion-electron system (eV)
  ---------------------------------------------------
  alpha Z        PSCENC =       574.63678771
  Ewald energy   TEWEN  =    -15517.83223551
  -Hartree energ DENC   =    -10795.16230214
  -exchange      EXHF   =         0.00000000
  -V(xc)+E(xc)   XCENC  =       820.64139841
  PAW double counting   =     27751.33108758   -28673.10186016
  entropy T*S    EENTRO =         0.00000000
  eigenvalues    EBANDS =     -2747.26398363
  atomic energy  EATOM  =     28505.01627691
  ---------------------------------------------------
  free energy    TOTEN  =       -81.73483083 eV

  energy without entropy =      -81.73483083  energy(sigma->0) =      -81.73483083


--------------------------------------------------------------------------------------------------------




--------------------------------------- Iteration      1(  11)  ---------------------------------------


    POTLOK:  cpu time    0.0891: real time    0.0891
    SETDIJ:  cpu time    0.6353: real time    0.6354
    TRIAL :  cpu time    2.4326: real time    2.4352
 BZINTS: Fermi energy:  4.605255;172.000000 electrons
         Band energy:***********;  BLOECHL correction:  0.000000
 BZINTS: Fermi energy:  4.605255;172.000000 electrons
         Band energy:***********;  BLOECHL correction:  0.000000
    CORREC:  cpu time    3.0001: real time    3.0028
    CHARGE:  cpu time    0.9180: real time    0.9184
    --------------------------------------------
      LOOP:  cpu time    7.0937: real time    7.1029

 eigenvalue-minimisations  :     0
 total energy-change (2. order) :-0.3176683E-06  (-0.1131208E-05)
 number of electron     172.0000150 magnetization      -0.0000000      0.0000000      0.0000000
 augmentation part       70.5873112 magnetization       0.0000005     -0.0000001     -0.0000706

 Free energy of the ion-electron system (eV)
  ---------------------------------------------------
  alpha Z        PSCENC =       574.63678771
  Ewald energy   TEWEN  =    -15517.83223551
  -Hartree energ DENC   =    -10795.16230321
  -exchange      EXHF   =         0.00000000
  -V(xc)+E(xc)   XCENC  =       820.64139810
  PAW double counting   =     27751.33110863   -28673.10188113
  entropy T*S    EENTRO =         0.00000000
  eigenvalues    EBANDS =     -2747.26398264
  atomic energy  EATOM  =     28505.01627691
  ---------------------------------------------------
  free energy    TOTEN  =       -81.73483114 eV

  energy without entropy =      -81.73483114  energy(sigma->0) =      -81.73483114


--------------------------------------------------------------------------------------------------------




--------------------------------------- Iteration      1(  12)  ---------------------------------------


    POTLOK:  cpu time    0.0906: real time    0.0906
    SETDIJ:  cpu time    0.6375: real time    0.6375
    TRIAL :  cpu time    2.4430: real time    2.4457
 BZINTS: Fermi energy:  4.605252;172.000000 electrons
         Band energy:***********;  BLOECHL correction:  0.000000
 BZINTS: Fermi energy:  4.605255;172.000000 electrons
         Band energy:***********;  BLOECHL correction:  0.000000
    CORREC:  cpu time    3.0005: real time    3.0031
    CHARGE:  cpu time    0.9117: real time    0.9120
    --------------------------------------------
      LOOP:  cpu time    7.1085: real time    7.1172

 eigenvalue-minimisations  :     0
 total energy-change (2. order) :-0.1140645E-05  (-0.2098037E-07)
 number of electron     172.0000150 magnetization      -0.0000000      0.0000000      0.0000000
 augmentation part       70.5873112 magnetization       0.0000004     -0.0000001     -0.0000706

 Free energy of the ion-electron system (eV)
  ---------------------------------------------------
  alpha Z        PSCENC =       574.63678771
  Ewald energy   TEWEN  =    -15517.83223551
  -Hartree energ DENC   =    -10795.16231631
  -exchange      EXHF   =         0.00000000
  -V(xc)+E(xc)   XCENC  =       820.64139912
  PAW double counting   =     27751.33141390   -28673.10218529
  entropy T*S    EENTRO =         0.00000000
  eigenvalues    EBANDS =     -2747.26397281
  atomic energy  EATOM  =     28505.01627691
  ---------------------------------------------------
  free energy    TOTEN  =       -81.73483229 eV

  energy without entropy =      -81.73483229  energy(sigma->0) =      -81.73483229


--------------------------------------------------------------------------------------------------------




--------------------------------------- Iteration      1(  13)  ---------------------------------------


    POTLOK:  cpu time    0.0887: real time    0.0889
    SETDIJ:  cpu time    0.6355: real time    0.6356
    TRIAL :  cpu time    2.4355: real time    2.4382
 BZINTS: Fermi energy:  4.605254;172.000000 electrons
         Band energy:***********;  BLOECHL correction:  0.000000
 BZINTS: Fermi energy:  4.605255;172.000000 electrons
         Band energy:***********;  BLOECHL correction:  0.000000
    CORREC:  cpu time    2.9777: real time    2.9803
    CHARGE:  cpu time    0.9139: real time    0.9142
    --------------------------------------------
      LOOP:  cpu time    7.0705: real time    7.0798

 eigenvalue-minimisations  :     0
 total energy-change (2. order) :-0.2140296E-06  (-0.1318040E-07)
 number of electron     172.0000150 magnetization       0.0000000      0.0000000      0.0000000
 augmentation part       70.5873112 magnetization       0.0000004     -0.0000000     -0.0000706

 Free energy of the ion-electron system (eV)
  ---------------------------------------------------
  alpha Z        PSCENC =       574.63678771
  Ewald energy   TEWEN  =    -15517.83223551
  -Hartree energ DENC   =    -10795.16231648
  -exchange      EXHF   =         0.00000000
  -V(xc)+E(xc)   XCENC  =       820.64139869
  PAW double counting   =     27751.33142763   -28673.10219899
  entropy T*S    EENTRO =         0.00000000
  eigenvalues    EBANDS =     -2747.26397246
  atomic energy  EATOM  =     28505.01627691
  ---------------------------------------------------
  free energy    TOTEN  =       -81.73483250 eV

  energy without entropy =      -81.73483250  energy(sigma->0) =      -81.73483250


--------------------------------------------------------------------------------------------------------




--------------------------------------- Iteration      1(  14)  ---------------------------------------


    POTLOK:  cpu time    0.0895: real time    0.0898
    SETDIJ:  cpu time    0.6375: real time    0.6375
    TRIAL :  cpu time    2.4370: real time    2.4396
 BZINTS: Fermi energy:  4.605258;172.000000 electrons
         Band energy:***********;  BLOECHL correction:  0.000000
 BZINTS: Fermi energy:  4.605255;172.000000 electrons
         Band energy:***********;  BLOECHL correction:  0.000000
    CORREC:  cpu time    2.9813: real time    2.9841
    CHARGE:  cpu time    0.9146: real time    0.9149
    --------------------------------------------
      LOOP:  cpu time    7.0865: real time    7.0953

 eigenvalue-minimisations  :     0
 total energy-change (2. order) :-0.4081994E-06  (-0.7630909E-08)
 number of electron     172.0000150 magnetization      -0.0000000      0.0000000      0.0000000
 augmentation part       70.5873112 magnetization       0.0000004     -0.0000000     -0.0000706

 Free energy of the ion-electron system (eV)
  ---------------------------------------------------
  alpha Z        PSCENC =       574.63678771
  Ewald energy   TEWEN  =    -15517.83223551
  -Hartree energ DENC   =    -10795.16231656
  -exchange      EXHF   =         0.00000000
  -V(xc)+E(xc)   XCENC  =       820.64139783
  PAW double counting   =     27751.33144297   -28673.10221431
  entropy T*S    EENTRO =         0.00000000
  eigenvalues    EBANDS =     -2747.26397195
  atomic energy  EATOM  =     28505.01627691
  ---------------------------------------------------
  free energy    TOTEN  =       -81.73483291 eV

  energy without entropy =      -81.73483291  energy(sigma->0) =      -81.73483291


--------------------------------------------------------------------------------------------------------




--------------------------------------- Iteration      1(  15)  ---------------------------------------


    POTLOK:  cpu time    0.0898: real time    0.0898
    SETDIJ:  cpu time    0.6385: real time    0.6387
    TRIAL :  cpu time    2.4329: real time    2.4362
 BZINTS: Fermi energy:  4.605255;172.000000 electrons
         Band energy:***********;  BLOECHL correction:  0.000000
 BZINTS: Fermi energy:  4.605255;172.000000 electrons
         Band energy:***********;  BLOECHL correction:  0.000000
    CORREC:  cpu time    3.0037: real time    3.0064
    CHARGE:  cpu time    0.9227: real time    0.9230
    --------------------------------------------
      LOOP:  cpu time    7.1056: real time    7.1155

 eigenvalue-minimisations  :     0
 total energy-change (2. order) :-0.2860688E-06  (-0.4349396E-08)
 number of electron     172.0000150 magnetization       0.0000000      0.0000000      0.0000000
 augmentation part       70.5873112 magnetization       0.0000004     -0.0000000     -0.0000706

 Free energy of the ion-electron system (eV)
  ---------------------------------------------------
  alpha Z        PSCENC =       574.63678771
  Ewald energy   TEWEN  =    -15517.83223551
  -Hartree energ DENC   =    -10795.16231656
  -exchange      EXHF   =         0.00000000
  -V(xc)+E(xc)   XCENC  =       820.64139722
  PAW double counting   =     27751.33144753   -28673.10221887
  entropy T*S    EENTRO =         0.00000000
  eigenvalues    EBANDS =     -2747.26397162
  atomic energy  EATOM  =     28505.01627691
  ---------------------------------------------------
  free energy    TOTEN  =       -81.73483319 eV

  energy without entropy =      -81.73483319  energy(sigma->0) =      -81.73483319


--------------------------------------------------------------------------------------------------------




--------------------------------------- Iteration      1(  16)  ---------------------------------------


    POTLOK:  cpu time    0.0921: real time    0.0921
    SETDIJ:  cpu time    0.6386: real time    0.6388
    TRIAL :  cpu time    2.4335: real time    2.4361
 BZINTS: Fermi energy:  4.605253;172.000000 electrons
         Band energy:***********;  BLOECHL correction:  0.000000
 BZINTS: Fermi energy:  4.605255;172.000000 electrons
         Band energy:***********;  BLOECHL correction:  0.000000
    CORREC:  cpu time    2.9786: real time    2.9812
    CHARGE:  cpu time    0.9163: real time    0.9166
    --------------------------------------------
      LOOP:  cpu time    7.0778: real time    7.0869

 eigenvalue-minimisations  :     0
 total energy-change (2. order) : 0.1728949E-07  (-0.6413255E-08)
 number of electron     172.0000150 magnetization      -0.0000000      0.0000000      0.0000000
 augmentation part       70.5873112 magnetization       0.0000004     -0.0000000     -0.0000706

 Free energy of the ion-electron system (eV)
  ---------------------------------------------------
  alpha Z        PSCENC =       574.63678771
  Ewald energy   TEWEN  =    -15517.83223551
  -Hartree energ DENC   =    -10795.16231657
  -exchange      EXHF   =         0.00000000
  -V(xc)+E(xc)   XCENC  =       820.64139729
  PAW double counting   =     27751.33145474   -28673.10222610
  entropy T*S    EENTRO =         0.00000000
  eigenvalues    EBANDS =     -2747.26397165
  atomic energy  EATOM  =     28505.01627691
  ---------------------------------------------------
  free energy    TOTEN  =       -81.73483318 eV

  energy without entropy =      -81.73483318  energy(sigma->0) =      -81.73483318


--------------------------------------------------------------------------------------------------------




--------------------------------------- Iteration      1(  17)  ---------------------------------------


    POTLOK:  cpu time    0.0919: real time    0.0919
    SETDIJ:  cpu time    0.6364: real time    0.6366
    TRIAL :  cpu time    2.4419: real time    2.4445
 BZINTS: Fermi energy:  4.605254;172.000000 electrons
         Band energy:***********;  BLOECHL correction:  0.000000
 BZINTS: Fermi energy:  4.605255;172.000000 electrons
         Band energy:***********;  BLOECHL correction:  0.000000
    CORREC:  cpu time    2.9780: real time    2.9806
    CHARGE:  cpu time    0.9186: real time    0.9188
    --------------------------------------------
      LOOP:  cpu time    7.0850: real time    7.0944

 eigenvalue-minimisations  :     0
 total energy-change (2. order) : 0.9982614E-07  (-0.4623100E-08)
 number of electron     172.0000150 magnetization       0.0000000      0.0000000      0.0000000
 augmentation part       70.5873112 magnetization       0.0000004     -0.0000000     -0.0000706

 Free energy of the ion-electron system (eV)
  ---------------------------------------------------
  alpha Z        PSCENC =       574.63678771
  Ewald energy   TEWEN  =    -15517.83223551
  -Hartree energ DENC   =    -10795.16231659
  -exchange      EXHF   =         0.00000000
  -V(xc)+E(xc)   XCENC  =       820.64139750
  PAW double counting   =     27751.33146855   -28673.10223993
  entropy T*S    EENTRO =         0.00000000
  eigenvalues    EBANDS =     -2747.26397172
  atomic energy  EATOM  =     28505.01627691
  ---------------------------------------------------
  free energy    TOTEN  =       -81.73483308 eV

  energy without entropy =      -81.73483308  energy(sigma->0) =      -81.73483308


--------------------------------------------------------------------------------------------------------




--------------------------------------- Iteration      1(  18)  ---------------------------------------


    POTLOK:  cpu time    0.0908: real time    0.0908
    SETDIJ:  cpu time    0.6349: real time    0.6351
    TRIAL :  cpu time    2.4480: real time    2.4506
 BZINTS: Fermi energy:  4.605253;172.000000 electrons
         Band energy:***********;  BLOECHL correction:  0.000000
 BZINTS: Fermi energy:  4.605255;172.000000 electrons
         Band energy:***********;  BLOECHL correction:  0.000000
    CORREC:  cpu time    2.9827: real time    2.9853
    CHARGE:  cpu time    0.9145: real time    0.9148
    --------------------------------------------
      LOOP:  cpu time    7.0894: real time    7.0989

 eigenvalue-minimisations  :     0
 total energy-change (2. order) :-0.1720273E-06  (-0.3493378E-08)
 number of electron     172.0000150 magnetization       0.0000000      0.0000000      0.0000000
 augmentation part       70.5873112 magnetization       0.0000004     -0.0000000     -0.0000706

 Free energy of the ion-electron system (eV)
  ---------------------------------------------------
  alpha Z        PSCENC =       574.63678771
  Ewald energy   TEWEN  =    -15517.83223551
  -Hartree energ DENC   =    -10795.16231668
  -exchange      EXHF   =         0.00000000
  -V(xc)+E(xc)   XCENC  =       820.64139717
  PAW double counting   =     27751.33147226   -28673.10224364
  entropy T*S    EENTRO =         0.00000000
  eigenvalues    EBANDS =     -2747.26397146
  atomic energy  EATOM  =     28505.01627691
  ---------------------------------------------------
  free energy    TOTEN  =       -81.73483325 eV

  energy without entropy =      -81.73483325  energy(sigma->0) =      -81.73483325


--------------------------------------------------------------------------------------------------------




--------------------------------------- Iteration      1(  19)  ---------------------------------------


    POTLOK:  cpu time    0.0904: real time    0.0904
    SETDIJ:  cpu time    0.6356: real time    0.6358
    TRIAL :  cpu time    2.4318: real time    2.4344
 BZINTS: Fermi energy:  4.605253;172.000000 electrons
         Band energy:***********;  BLOECHL correction:  0.000000
 BZINTS: Fermi energy:  4.605255;172.000000 electrons
         Band energy:***********;  BLOECHL correction:  0.000000
    CORREC:  cpu time    3.0088: real time    3.0114
    CHARGE:  cpu time    0.9180: real time    0.9183
    --------------------------------------------
      LOOP:  cpu time    7.1016: real time    7.1105

 eigenvalue-minimisations  :     0
 total energy-change (2. order) : 0.1040135E-06  (-0.7910107E-08)
 number of electron     172.0000150 magnetization       0.0000000     -0.0000000      0.0000000
 augmentation part       70.5873112 magnetization       0.0000004     -0.0000000     -0.0000706

 Free energy of the ion-electron system (eV)
  ---------------------------------------------------
  alpha Z        PSCENC =       574.63678771
  Ewald energy   TEWEN  =    -15517.83223551
  -Hartree energ DENC   =    -10795.16231682
  -exchange      EXHF   =         0.00000000
  -V(xc)+E(xc)   XCENC  =       820.64139741
  PAW double counting   =     27751.33147893   -28673.10225034
  entropy T*S    EENTRO =         0.00000000
  eigenvalues    EBANDS =     -2747.26397143
  atomic energy  EATOM  =     28505.01627691
  ---------------------------------------------------
  free energy    TOTEN  =       -81.73483314 eV

  energy without entropy =      -81.73483314  energy(sigma->0) =      -81.73483314


--------------------------------------------------------------------------------------------------------




--------------------------------------- Iteration      1(  20)  ---------------------------------------


    POTLOK:  cpu time    0.0899: real time    0.0899
    SETDIJ:  cpu time    0.6356: real time    0.6358
    TRIAL :  cpu time    2.4339: real time    2.4366
 BZINTS: Fermi energy:  4.605253;172.000000 electrons
         Band energy:***********;  BLOECHL correction:  0.000000
 BZINTS: Fermi energy:  4.605254;172.000000 electrons
         Band energy:***********;  BLOECHL correction:  0.000000
    CORREC:  cpu time    2.9980: real time    3.0006
    CHARGE:  cpu time    0.9179: real time    0.9181
    --------------------------------------------
      LOOP:  cpu time    7.0920: real time    7.1011

 eigenvalue-minimisations  :     0
 total energy-change (2. order) : 0.1175231E-06  (-0.8900690E-08)
 number of electron     172.0000150 magnetization       0.0000000      0.0000000     -0.0000000
 augmentation part       70.5873112 magnetization       0.0000004     -0.0000000     -0.0000706

 Free energy of the ion-electron system (eV)
  ---------------------------------------------------
  alpha Z        PSCENC =       574.63678771
  Ewald energy   TEWEN  =    -15517.83223551
  -Hartree energ DENC   =    -10795.16231707
  -exchange      EXHF   =         0.00000000
  -V(xc)+E(xc)   XCENC  =       820.64139767
  PAW double counting   =     27751.33149101   -28673.10226245
  entropy T*S    EENTRO =         0.00000000
  eigenvalues    EBANDS =     -2747.26397130
  atomic energy  EATOM  =     28505.01627691
  ---------------------------------------------------
  free energy    TOTEN  =       -81.73483303 eV

  energy without entropy =      -81.73483303  energy(sigma->0) =      -81.73483303


--------------------------------------------------------------------------------------------------------




--------------------------------------- Iteration      1(  21)  ---------------------------------------


    POTLOK:  cpu time    0.0914: real time    0.0914
    SETDIJ:  cpu time    0.6358: real time    0.6360
    TRIAL :  cpu time    2.4452: real time    2.4476
 BZINTS: Fermi energy:  4.605255;172.000000 electrons
         Band energy:***********;  BLOECHL correction:  0.000000
 BZINTS: Fermi energy:  4.605254;172.000000 electrons
         Band energy:***********;  BLOECHL correction:  0.000000
    CORREC:  cpu time    2.9867: real time    2.9896
    CHARGE:  cpu time    0.9158: real time    0.9161
    --------------------------------------------
      LOOP:  cpu time    7.0955: real time    7.1042

 eigenvalue-minimisations  :     0
 total energy-change (2. order) :-0.3733112E-07  (-0.4498598E-08)
 number of electron     172.0000150 magnetization       0.0000000      0.0000000      0.0000000
 augmentation part       70.5873112 magnetization       0.0000004     -0.0000000     -0.0000706

 Free energy of the ion-electron system (eV)
  ---------------------------------------------------
  alpha Z        PSCENC =       574.63678771
  Ewald energy   TEWEN  =    -15517.83223551
  -Hartree energ DENC   =    -10795.16231756
  -exchange      EXHF   =         0.00000000
  -V(xc)+E(xc)   XCENC  =       820.64139766
  PAW double counting   =     27751.33151562   -28673.10228712
  entropy T*S    EENTRO =         0.00000000
  eigenvalues    EBANDS =     -2747.26397078
  atomic energy  EATOM  =     28505.01627691
  ---------------------------------------------------
  free energy    TOTEN  =       -81.73483306 eV

  energy without entropy =      -81.73483306  energy(sigma->0) =      -81.73483306


--------------------------------------------------------------------------------------------------------




--------------------------------------- Iteration      1(  22)  ---------------------------------------


    POTLOK:  cpu time    0.0922: real time    0.0922
    SETDIJ:  cpu time    0.6376: real time    0.6378
    TRIAL :  cpu time    2.4289: real time    2.4313
 BZINTS: Fermi energy:  4.605254;172.000000 electrons
         Band energy:***********;  BLOECHL correction:  0.000000
[...]
 -0.000   0.000  -0.000   0.000  -0.000   0.000   0.000   0.000   0.000   0.000  -0.000   0.000   0.000   0.000   0.000   0.000
 pseudopotential strength for first ion, spin component:           3
  0.000  -0.000   0.000  -0.000  -0.000  -0.000  -0.000   0.000  -0.000  -0.000  -0.000  -0.000  -0.000   0.000  -0.000  -0.000
  0.000  -0.000   0.000  -0.000  -0.000  -0.000  -0.000   0.000  -0.000  -0.000  -0.000  -0.000  -0.000   0.000  -0.000  -0.000
 -0.000  -0.000  -0.000  -0.000   0.000  -0.000  -0.000   0.000  -0.000  -0.000   0.000  -0.000  -0.000   0.000  -0.000  -0.000
 -0.000   0.000  -0.000   0.000  -0.000   0.000   0.000  -0.000   0.000  -0.000  -0.000   0.000   0.000  -0.000   0.000  -0.000
 -0.000  -0.000  -0.000  -0.000  -0.000  -0.000   0.000  -0.000   0.000  -0.000  -0.000  -0.000   0.000  -0.000   0.000  -0.000
 -0.000  -0.000  -0.000  -0.000   0.000  -0.000  -0.000   0.000  -0.000  -0.000   0.000  -0.000  -0.000   0.000  -0.000  -0.000
 -0.000   0.000  -0.000   0.000  -0.000   0.000   0.000  -0.000   0.000  -0.000  -0.000   0.000   0.000  -0.000   0.000  -0.000
 -0.000  -0.000  -0.000  -0.000  -0.000  -0.000   0.000  -0.000   0.000  -0.000  -0.000  -0.000   0.000  -0.000   0.000  -0.000
 pseudopotential strength for first ion, spin component:           4
 39.575   0.000  45.450   0.000  -0.001   0.000  -0.000   0.000  -0.004   0.000  -0.001   0.000  -0.000   0.000  -0.005   0.000
 45.450   0.000  52.200   0.000  -0.001   0.000  -0.000   0.000  -0.004   0.000  -0.001   0.000  -0.000   0.000  -0.006   0.000
 -0.001   0.000  -0.001   0.000   8.214   0.000   0.002   0.000  -0.000   0.000  11.133   0.000   0.003   0.000  -0.000   0.000
 -0.000   0.000  -0.000   0.000   0.002   0.000   8.212   0.000  -0.001   0.000   0.003   0.000  11.130   0.000  -0.001   0.000
 -0.004   0.000  -0.004   0.000  -0.000   0.000  -0.001   0.000   8.214   0.000  -0.000   0.000  -0.001   0.000  11.133   0.000
 -0.001   0.000  -0.001   0.000  11.133   0.000   0.003   0.000  -0.000   0.000  15.109   0.000   0.003   0.000  -0.000   0.000
 -0.000   0.000  -0.000   0.000   0.003   0.000  11.130   0.000  -0.001   0.000   0.003   0.000  15.106   0.000  -0.001   0.000
 -0.005   0.000  -0.006   0.000  -0.000   0.000  -0.001   0.000  11.133   0.000  -0.000   0.000  -0.001   0.000  15.110   0.000
 total augmentation occupancy for first ion, spin component:           1
 10.495  -6.492   0.000   0.000  -0.608  -0.000   0.000   0.166
 -6.492   4.738  -0.000   0.000   0.502   0.000   0.000  -0.105
  0.000  -0.000   3.622   0.090   0.000  -1.024  -0.049   0.000
  0.000   0.000   0.090   3.367   0.000  -0.049  -0.889   0.000
 -0.608   0.502   0.000   0.000   3.619   0.000   0.000  -1.026
 -0.000   0.000  -1.024  -0.049   0.000   0.340   0.017   0.000
  0.000   0.000  -0.049  -0.889   0.000   0.017   0.289   0.000
  0.166  -0.105   0.000   0.000  -1.026   0.000   0.000   0.341
 total augmentation occupancy for first ion, spin component:           2
  0.000  -0.000   0.000   0.000  -0.000   0.000   0.000  -0.000
 -0.000   0.000  -0.000  -0.000   0.000   0.000   0.000   0.000
 -0.000   0.000  -0.000   0.000   0.000   0.000  -0.000  -0.000
  0.000  -0.000   0.000  -0.000   0.000  -0.000   0.000   0.000
 -0.000   0.000  -0.000   0.000   0.000   0.000  -0.000  -0.000
  0.000   0.000   0.000  -0.000   0.000   0.000   0.000   0.000
  0.000   0.000  -0.000   0.000   0.000   0.000  -0.000  -0.000
 -0.000   0.000   0.000   0.000  -0.000   0.000   0.000   0.000
 total augmentation occupancy for first ion, spin component:           3
  0.000   0.000   0.000   0.000   0.000  -0.000  -0.000  -0.000
  0.000  -0.000  -0.000  -0.000   0.000   0.000   0.000   0.000
  0.000  -0.000   0.000  -0.000   0.000  -0.000   0.000  -0.000
  0.000  -0.000  -0.000   0.000  -0.000  -0.000  -0.000   0.000
  0.000   0.000   0.000  -0.000   0.000  -0.000  -0.000   0.000
 -0.000   0.000  -0.000  -0.000  -0.000   0.000  -0.000   0.000
 -0.000   0.000   0.000   0.000  -0.000  -0.000   0.000   0.000
  0.000   0.000  -0.000   0.000   0.000   0.000   0.000  -0.000
 total augmentation occupancy for first ion, spin component:           4
  0.000  -0.000   0.132   0.108   0.000   0.074   0.068   0.000
 -0.000   0.000  -0.107  -0.087   0.000  -0.084  -0.076  -0.000
  0.132  -0.107   0.000   0.000   0.005   0.000  -0.000  -0.006
  0.108  -0.087   0.000   0.000   0.006   0.000   0.000  -0.001
 -0.000   0.000   0.005   0.006  -0.000  -0.006  -0.001   0.000
  0.074  -0.084   0.000  -0.000  -0.006  -0.000   0.000   0.015
  0.068  -0.076   0.000   0.000  -0.001   0.000  -0.000   0.012
 -0.000   0.000  -0.006  -0.001   0.000   0.015   0.012  -0.000


------------------------ aborting loop because EDIFF is reached ----------------------------------------


 


 total charge     
 
# of ion       s       p       d       tot
------------------------------------------
    1        1.315   2.395   0.000   3.710
    2        1.315   2.393   0.000   3.708
    3        1.315   2.393   0.000   3.708
    4        1.315   2.393   0.000   3.708
    5        1.315   2.393   0.000   3.708
    6        1.315   2.395   0.000   3.710
    7        1.315   2.393   0.000   3.708
    8        1.315   2.393   0.000   3.708
    9        0.249   6.183   8.925  15.357
   10        0.249   6.183   8.925  15.357
   11        0.249   6.183   8.925  15.357
   12        0.249   6.183   8.925  15.357
   13        0.341   6.335   5.803  12.479
   14        0.341   6.335   5.803  12.480
   15        0.341   6.335   5.803  12.479
   16        0.341   6.335   5.803  12.480
--------------------------------------------------
tot         12.881  69.222  58.912 141.015
 


 magnetization (x)
 
# of ion       s       p       d       tot
------------------------------------------
    1        0.000   0.000   0.000   0.000
    2       -0.000  -0.000   0.000  -0.000
    3       -0.000   0.000   0.000   0.000
    4       -0.000   0.000   0.000   0.000
    5       -0.000  -0.000   0.000  -0.000
    6        0.000   0.000   0.000   0.000
    7       -0.000   0.000   0.000   0.000
    8       -0.000   0.000   0.000   0.000
    9       -0.000   0.000  -0.000  -0.000
   10        0.000  -0.000  -0.000  -0.000
   11       -0.000   0.000  -0.000  -0.000
   12        0.000  -0.000  -0.000  -0.000
   13       -0.000  -0.000   0.000   0.000
   14       -0.000  -0.000   0.000   0.000
   15       -0.000  -0.000   0.000   0.000
   16       -0.000  -0.000   0.000   0.000
--------------------------------------------------
tot         -0.000  -0.000  -0.000  -0.000
 


 magnetization (y)
 
# of ion       s       p       d       tot
------------------------------------------
    1        0.000  -0.000   0.000  -0.000
    2        0.000  -0.000   0.000  -0.000
    3        0.000   0.000   0.000   0.000
    4       -0.000  -0.000   0.000  -0.000
    5        0.000  -0.000   0.000  -0.000
    6        0.000  -0.000   0.000  -0.000
    7        0.000   0.000   0.000   0.000
    8       -0.000  -0.000   0.000  -0.000
    9        0.000  -0.000  -0.000  -0.000
   10        0.000  -0.000   0.000   0.000
   11        0.000  -0.000  -0.000  -0.000
   12        0.000  -0.000   0.000   0.000
   13        0.000   0.000  -0.000  -0.000
   14       -0.000  -0.000  -0.000  -0.000
   15        0.000   0.000  -0.000  -0.000
   16       -0.000  -0.000  -0.000  -0.000
--------------------------------------------------
tot          0.000  -0.000   0.000   0.000
 


 magnetization (z)
 
# of ion       s       p       d       tot
------------------------------------------
    1        0.000  -0.002   0.000  -0.002
    2        0.000  -0.003   0.000  -0.003
    3       -0.000   0.002   0.000   0.002
    4       -0.000   0.003   0.000   0.003
    5        0.000  -0.003   0.000  -0.003
    6        0.000  -0.002   0.000  -0.002
    7       -0.000   0.002   0.000   0.002
    8       -0.000   0.003   0.000   0.003
    9        0.000   0.003  -0.010  -0.007
   10       -0.000  -0.003   0.009   0.007
   11        0.000   0.003  -0.010  -0.007
   12       -0.000  -0.003   0.009   0.007
   13        0.021   0.052   3.693   3.765
   14       -0.021  -0.052  -3.692  -3.765
   15        0.021   0.052   3.693   3.765
   16       -0.021  -0.052  -3.692  -3.765
--------------------------------------------------
tot         -0.000  -0.000  -0.000  -0.000
 
    FORLOC:  cpu time    0.0044: real time    0.0044
    FORNL :  cpu time    0.7606: real time    0.7607
    STRESS:  cpu time    0.6631: real time    0.6633
    FORCOR:  cpu time    0.0781: real time    0.0781
    OFIELD:  cpu time    0.0008: real time    0.0008

  FORCE on cell =-STRESS in cart. coord.  units (eV):
  Direction    XX          YY          ZZ          XY          YZ          ZX
  --------------------------------------------------------------------------------------
  Alpha Z   574.63679   574.63679   574.63679
  Ewald   -4962.91461 -4962.91461 -5592.04543    -0.00000     0.00000     0.00000
  Hartree  3705.87861  3705.87861  3383.40509    -0.00000    -0.00000    -0.00000
  E(xc)   -1049.63115 -1049.63115 -1050.01006    -0.00000    -0.00000    -0.00000
  Local   -1604.74900 -1604.74900  -654.03810    -0.00000    -0.00000    -0.00000
  n-local   117.85928   119.04004   112.57366    -0.13372    -0.02928    -0.02949
  augment  1181.50692  1181.50692  1176.18900     0.00000     0.00000     0.00000
  Kinetic  2027.01457  2032.76533  2049.28934    -0.72176     0.20619    -0.07040
  Fock        0.00000     0.00000     0.00000     0.00000     0.00000     0.00000
  -------------------------------------------------------------------------------------
  Total      -6.93283    -6.93283     0.00027     0.00000     0.00000     0.00000
  in kB     -37.66874   -37.66874     0.00149     0.00000     0.00000     0.00000
  external pressure =      -25.11 kB  Pullay stress =        0.00 kB


 VOLUME and BASIS-vectors are now :
 -----------------------------------------------------------------------------
  energy-cutoff  :      700.00
  volume of cell :      294.88
      direct lattice vectors                 reciprocal lattice vectors
     5.521724938  0.000000000  0.000000000     0.181102828  0.000000000  0.000000000
     0.000000000  5.521724938  0.000000000     0.000000000  0.181102828  0.000000000
     0.000000000  0.000000000  9.671429894     0.000000000  0.000000000  0.103397327

  length of vectors
     5.521724938  5.521724938  9.671429894     0.181102828  0.181102828  0.103397327


 FORCES acting on ions:
    Electron-Ion                     Ewald-Force                    Non-Local-Force
 -----------------------------------------------------------------------------------------------
   0.412E+02 -.137E-12 -.146E-12   -.419E+02 0.767E-12 -.568E-13   0.718E+00 0.211E-18 -.826E-18
   -.412E+02 0.457E-13 0.906E-12   0.419E+02 -.151E-11 0.284E-13   -.718E+00 -.807E-18 -.656E-19
   0.165E-12 -.412E+02 0.353E-12   0.767E-12 0.419E+02 0.711E-14   0.439E-18 -.718E+00 -.703E-18
   0.247E-12 0.412E+02 -.837E-12   -.147E-11 -.419E+02 0.142E-13   0.444E-18 0.718E+00 -.123E-18
   -.412E+02 0.261E-12 0.529E-12   0.419E+02 0.801E-12 0.639E-13   -.718E+00 0.398E-18 0.427E-18
   0.412E+02 0.100E-11 -.587E-12   -.419E+02 -.153E-11 0.782E-13   0.718E+00 0.592E-18 0.530E-18
   0.371E-12 -.412E+02 0.767E-12   -.138E-11 0.419E+02 -.284E-13   -.388E-18 -.718E+00 -.834E-18
   -.165E-12 0.412E+02 -.170E-12   0.711E-12 -.419E+02 0.000E+00   -.413E-18 0.718E+00 0.212E-17
   0.824E-13 -.129E-12 0.326E-11   0.107E-04 -.264E-04 -.568E-13   -.842E-20 0.122E-19 -.148E-17
   0.161E-11 0.772E-13 -.722E-11   -.107E-04 -.264E-04 -.773E-11   0.744E-21 -.487E-19 0.200E-18
   0.161E-11 -.587E-11 0.370E-12   -.107E-04 0.264E-04 0.000E+00   0.396E-20 -.540E-19 0.950E-19
   0.824E-13 0.177E-11 0.395E-11   0.107E-04 0.264E-04 0.774E-11   -.148E-19 0.185E-19 -.151E-17
   0.329E-12 -.226E-12 -.159E-12   -.849E-05 0.218E-04 0.284E-13   -.449E-18 0.311E-18 0.178E-17
   0.101E-11 0.288E-12 -.332E-10   0.849E-05 0.218E-04 -.610E-11   -.111E-18 -.173E-18 0.182E-17
   0.103E-11 -.392E-11 -.111E-10   0.849E-05 -.218E-04 -.853E-13   0.251E-19 0.267E-18 -.208E-17
   0.288E-12 0.903E-12 0.776E-12   -.849E-05 -.218E-04 0.617E-11   0.410E-18 0.148E-18 -.164E-17
 -----------------------------------------------------------------------------------------------
   0.131E-10 -.119E-13 -.428E-10   -.522E-13 -.217E-13 0.736E-13   -.112E-15 0.112E-15 -.229E-17
 
 
 POSITION                                       TOTAL-FORCE (eV/Angst)
 -----------------------------------------------------------------------------------
      1.38531      1.38043      1.20893        -0.000007      0.000000     -0.000000
      4.13641      4.14129      1.20893         0.000007      0.000000     -0.000000
      1.38043      4.13641      8.46250        -0.000000      0.000007     -0.000000
      4.14129      1.38531      8.46250        -0.000000     -0.000007      0.000000
      1.37555      1.38043      6.04464         0.000007      0.000000      0.000000
      4.14617      4.14129      6.04464        -0.000007      0.000000      0.000000
      4.14129      1.37555      3.62679        -0.000000      0.000007      0.000000
      1.38043      4.14617      3.62679        -0.000000     -0.000007      0.000000
      0.00000      0.00000      4.83571         0.000000      0.000000     -0.000000
      2.76086      0.00000      2.41786        -0.000000      0.000000     -0.000000
      2.76086      2.76086      0.00000         0.000000      0.000000      0.000000
      0.00000      2.76086      7.25357        -0.000000      0.000000      0.000000
      0.00000      0.00000      0.00000        -0.000000      0.000000      0.000000
      2.76086      0.00000      7.25357         0.000000      0.000000     -0.000000
      2.76086      2.76086      4.83571        -0.000000     -0.000000      0.000000
      0.00000      2.76086      2.41786         0.000000      0.000000     -0.000000
 -----------------------------------------------------------------------------------
    total drift:                                0.000000     -0.000000     -0.000000


--------------------------------------------------------------------------------------------------------



  FREE ENERGIE OF THE ION-ELECTRON SYSTEM (eV)
  ---------------------------------------------------
  free  energy   TOTEN  =       -81.73483323 eV

  energy  without entropy=      -81.73483323  energy(sigma->0) =      -81.73483323
 


--------------------------------------------------------------------------------------------------------


    POTLOK:  cpu time    0.7274: real time    0.7277


--------------------------------------------------------------------------------------------------------


 writing wavefunctions
     LOOP+:  cpu time  222.2945: real time  228.7300
    4ORBIT:  cpu time    0.0000: real time    0.0000
 


 total charge     
 
# of ion       s       p       d       tot
------------------------------------------
    1        1.315   2.395   0.000   3.710
    2        1.315   2.393   0.000   3.708
    3        1.315   2.393   0.000   3.708
    4        1.315   2.393   0.000   3.708
    5        1.315   2.393   0.000   3.708
    6        1.315   2.395   0.000   3.710
    7        1.315   2.393   0.000   3.708
    8        1.315   2.393   0.000   3.708
    9        0.249   6.183   8.925  15.357
   10        0.249   6.183   8.925  15.357
   11        0.249   6.183   8.925  15.357
   12        0.249   6.183   8.925  15.357
   13        0.341   6.335   5.803  12.479
   14        0.341   6.335   5.803  12.480
   15        0.341   6.335   5.803  12.479
   16        0.341   6.335   5.803  12.480
--------------------------------------------------
tot         12.881  69.222  58.912 141.015
 


 magnetization (x)
 
# of ion       s       p       d       tot
------------------------------------------
    1        0.000   0.000   0.000   0.000
    2       -0.000  -0.000   0.000  -0.000
    3       -0.000   0.000   0.000   0.000
    4       -0.000   0.000   0.000   0.000
    5       -0.000  -0.000   0.000  -0.000
    6        0.000   0.000   0.000   0.000
    7       -0.000   0.000   0.000   0.000
    8       -0.000   0.000   0.000   0.000
    9       -0.000   0.000  -0.000  -0.000
   10        0.000  -0.000  -0.000  -0.000
   11       -0.000   0.000  -0.000  -0.000
   12        0.000  -0.000  -0.000  -0.000
   13       -0.000  -0.000   0.000   0.000
   14       -0.000  -0.000   0.000   0.000
   15       -0.000  -0.000   0.000   0.000
   16       -0.000  -0.000   0.000   0.000
--------------------------------------------------
tot         -0.000  -0.000  -0.000  -0.000
 


 magnetization (y)
 
# of ion       s       p       d       tot
------------------------------------------
    1        0.000  -0.000   0.000  -0.000
    2        0.000  -0.000   0.000  -0.000
    3        0.000   0.000   0.000   0.000
    4       -0.000  -0.000   0.000  -0.000
    5        0.000  -0.000   0.000  -0.000
    6        0.000  -0.000   0.000  -0.000
    7        0.000   0.000   0.000   0.000
    8       -0.000  -0.000   0.000  -0.000
    9        0.000  -0.000  -0.000  -0.000
   10        0.000  -0.000   0.000   0.000
   11        0.000  -0.000  -0.000  -0.000
   12        0.000  -0.000   0.000   0.000
   13        0.000   0.000  -0.000  -0.000
   14       -0.000  -0.000  -0.000  -0.000
   15        0.000   0.000  -0.000  -0.000
   16       -0.000  -0.000  -0.000  -0.000
--------------------------------------------------
tot          0.000  -0.000   0.000   0.000
 


 magnetization (z)
 
# of ion       s       p       d       tot
------------------------------------------
    1        0.000  -0.002   0.000  -0.002
    2        0.000  -0.003   0.000  -0.003
    3       -0.000   0.002   0.000   0.002
    4       -0.000   0.003   0.000   0.003
    5        0.000  -0.003   0.000  -0.003
    6        0.000  -0.002   0.000  -0.002
    7       -0.000   0.002   0.000   0.002
    8       -0.000   0.003   0.000   0.003
    9        0.000   0.003  -0.010  -0.007
   10       -0.000  -0.003   0.009   0.007
   11        0.000   0.003  -0.010  -0.007
   12       -0.000  -0.003   0.009   0.007
   13        0.021   0.052   3.693   3.765
   14       -0.021  -0.052  -3.692  -3.765
   15        0.021   0.052   3.693   3.765
   16       -0.021  -0.052  -3.692  -3.765
--------------------------------------------------
tot         -0.000  -0.000  -0.000  -0.000
 
 BZINTS: Fermi energy:  4.605252;172.000000 electrons
         Band energy:***********;  BLOECHL correction:  0.000000
 BZINTS: Fermi energy:  4.605252;172.000000 electrons
         Band energy:***********;  BLOECHL correction:  0.000000
 BZINTS: Fermi energy:  4.605252;172.000000 electrons
         Band energy:***********;  BLOECHL correction:  0.000000
 BZINTS: Fermi energy:  4.605252;172.000000 electrons
         Band energy:***********;  BLOECHL correction:  0.000000

 total amount of memory used by VASP MPI-rank0    64376. kBytes
=======================================================================

   base      :      30000. kBytes
   nonl-proj :       3995. kBytes
   fftplans  :       1279. kBytes
   grid      :       5160. kBytes
   one-center:         62. kBytes
   wavefun   :      23880. kBytes
 
  
  
 General timing and accounting informations for this job:
 ========================================================
  
                  Total CPU time used (sec):      248.415
                            User time (sec):      233.028
                          System time (sec):       15.387
                         Elapsed time (sec):      257.346
  
                   Maximum memory used (kb):      327444.
                   Average memory used (kb):           0.
  
                          Minor page faults:       224598
                          Major page faults:          109
                 Voluntary context switches:        51147
