       N       E                     dE             d eps       ncg     rms          rms(c)
DAV:   1    -0.298448805188E+03   -0.29845E+03   -0.17553E+03 18944   0.242E+02    0.415E+01
DAV:   2    -0.327640006259E+03   -0.29191E+02   -0.29265E+02 14080   0.272E+01    0.169E+01
DAV:   3    -0.327961392141E+03   -0.32139E+00   -0.52760E+00 19968   0.491E+00    0.126E+01
DAV:   4    -0.327939685101E+03    0.21707E-01   -0.57428E-01 13824   0.212E+00    0.105E+01
DAV:   5    -0.327939410595E+03    0.27451E-03   -0.38004E-02 15104   0.587E-01    0.909E+00
DAV:   6    -0.327939052736E+03    0.35786E-03   -0.40104E-03 15872   0.166E-01    0.719E+00
DAV:   7    -0.327936865496E+03    0.21872E-02   -0.75277E-03 16128   0.258E-01    0.153E+00
DAV:   8    -0.327936888672E+03   -0.23175E-04   -0.32779E-04 13824   0.395E-02    0.102E+00
DAV:   9    -0.327936876556E+03    0.12115E-04   -0.20899E-05 18432   0.988E-03    0.920E-01
DAV:  10    -0.327936836392E+03    0.40164E-04   -0.45611E-04 13312   0.452E-02    0.181E-02
DAV:  11    -0.327936838374E+03   -0.19814E-05   -0.12585E-05 15104   0.635E-03    0.220E-02
DAV:  12    -0.327936839242E+03   -0.86834E-06   -0.14228E-06 17408   0.169E-03    0.417E-02
DAV:  13    -0.327936840340E+03   -0.10983E-05   -0.26193E-06 16896   0.184E-03    0.447E-02
DAV:  14    -0.327936840803E+03   -0.46250E-06   -0.26730E-07 12800   0.961E-04    0.186E-02
DAV:  15    -0.327936841116E+03   -0.31311E-06   -0.38727E-07 17408   0.601E-04    0.741E-03
DAV:  16    -0.327936841191E+03   -0.75306E-07   -0.18437E-07 14848   0.429E-04    0.209E-03
DAV:  17    -0.327936841193E+03   -0.13970E-08   -0.26414E-08 12288   0.252E-04
   1 F= -.32793684E+03 E0= -.32793684E+03  d E =0.000000E+00  mag=     0.0000
